LAMMPS data file via write_data, version 31 Mar 2017, timestep = 100000

500 atoms
1 atom types

0.0000000000000000e+00 1.7600000000000001e+01 xlo xhi
0.0000000000000000e+00 1.7600000000000001e+01 ylo yhi
0.0000000000000000e+00 1.7600000000000001e+01 zlo zhi

Masses

1 58.71

Atoms # atomic

1 1 2.0775132318984393e-02 1.7577867429960168e+01 1.7594953286754741e+01 0 -1 -1
2 1 1.7648862313190616e+00 1.6994355480976497e+00 2.3593124776104635e-02 0 0 0
3 1 1.7563619108594630e+00 1.7561314735008605e+01 1.7801722593756582e+00 0 -1 0
4 1 3.1268353355013837e-02 1.7383640736339572e+00 1.7621726240158984e+00 0 0 0
5 1 3.5375202713915059e+00 1.7587900181794133e+01 4.8820196158370606e-04 0 -1 0
8 1 3.5517023861609998e+00 1.7066318383248438e+00 1.7660193853375989e+00 0 0 0
21 1 3.8633136659252595e-02 3.4910074659225190e+00 1.7599012664790834e+01 0 0 -1
23 1 1.7585527518350801e+00 3.4584411614374928e+00 1.7624269535223100e+00 0 0 0
25 1 3.4732727400994192e+00 3.5109970357988090e+00 3.5426533445200636e-02 0 0 0
101 1 5.1387067287886976e-03 1.7578318276347929e+01 3.5146918578870077e+00 0 -1 0
102 1 1.7823931652191005e+00 1.7944707352936995e+00 3.5302708857006384e+00 0 0 0
105 1 3.5122153478321172e+00 1.7593291914895261e+01 3.5199909679932619e+00 0 -1 0
121 1 1.7568041315246607e+01 3.5107694875461917e+00 3.5074942471633808e+00 -1 0 0
125 1 3.5338419905276037e+00 3.5527600716372767e+00 3.5747908124276635e+00 0 0 0
6 1 5.2942744936653456e+00 1.7820939802395039e+00 1.7571640028973583e+01 0 0 -1
7 1 5.3154211963278160e+00 1.7577523321769000e+01 1.7967646349982489e+00 0 -1 0
9 1 7.0117108445964593e+00 1.7573017905989346e+01 1.7573640777224725e+01 0 -1 -1
12 1 7.0628024978834061e+00 1.7600240680644035e+00 1.7695704290676091e+00 0 0 0
27 1 5.2890281000931312e+00 3.5093228401805723e+00 1.8219852439978641e+00 0 0 0
29 1 7.0322660859825294e+00 3.5033397235999515e+00 4.5792056217093528e-02 0 0 0
106 1 5.2619712640251208e+00 1.7944709438591313e+00 3.5766140319688229e+00 0 0 0
109 1 7.0565543547309586e+00 1.7538925766702892e+01 3.5506329473651617e+00 0 -1 0
129 1 7.0485094028961361e+00 3.5115965320623479e+00 3.5600971355537241e+00 0 0 0
10 1 8.7863920448689470e+00 1.7432082513275966e+00 1.7561908816062488e+01 0 0 -1
11 1 8.8072763728172898e+00 1.7586415760465012e+01 1.7767334323002668e+00 0 -1 0
13 1 1.0534900861778095e+01 3.0351942663287817e-02 1.7567754932446203e+01 0 0 -1
14 1 1.2311212430523632e+01 1.7844209615028088e+00 6.3307854892330371e-03 0 0 0
15 1 1.2348398675293506e+01 2.1687188528380419e-02 1.7299426646750975e+00 0 0 0
16 1 1.0561142163330693e+01 1.7646519519694492e+00 1.7558846754839004e+00 0 0 0
31 1 8.7935896425156557e+00 3.5464991425383952e+00 1.7367573758530090e+00 0 0 0
33 1 1.0513834879965698e+01 3.4749451332416910e+00 1.7538289123823390e+01 0 0 -1
35 1 1.2368684374875597e+01 3.5329251946877438e+00 1.7655345074157758e+00 0 0 0
110 1 8.8077002206245414e+00 1.7366598918495761e+00 3.4815536185620295e+00 0 0 0
113 1 1.0632350021708969e+01 3.6952256400297846e-02 3.4990076735050586e+00 0 0 0
114 1 1.2357803204284926e+01 1.7980858446510308e+00 3.5340513293500546e+00 0 0 0
133 1 1.0580461951625368e+01 3.5349615653610340e+00 3.5033915912980733e+00 0 0 0
17 1 1.4098131179098020e+01 1.7543669932813167e+01 1.7590526662596588e+01 0 -1 -1
18 1 1.5805929933262018e+01 1.7524546577241664e+00 4.2658977725906565e-02 0 0 0
19 1 1.5857715987106875e+01 5.2338027543401069e-03 1.7476276358894078e+00 0 0 0
20 1 1.4111854663978450e+01 1.7383644621789760e+00 1.7081821336980096e+00 0 0 0
37 1 1.4069711355356016e+01 3.5552456709527851e+00 4.7022504290892327e-03 0 0 0
39 1 1.5830542595442736e+01 3.5253493601719330e+00 1.7382545768910898e+00 0 0 0
117 1 1.4109181005332525e+01 1.7599325491780796e+01 3.5209171793968936e+00 0 -1 0
118 1 1.5795704714045421e+01 1.7375124274679778e+00 3.5242205534041799e+00 0 0 0
137 1 1.4055008729353261e+01 3.5147139840899695e+00 3.5412685661340326e+00 0 0 0
22 1 1.7283697952030670e+00 5.2857952235645902e+00 1.7569250834064672e+01 0 0 -1
24 1 1.7588132760795634e+01 5.2797887462987791e+00 1.7651666276863451e+00 -1 0 0
28 1 3.4746423298513265e+00 5.2608431250073036e+00 1.7690987937183482e+00 0 0 0
41 1 1.7551131311505550e+01 7.0384304939625109e+00 6.6992494885012837e-03 -1 0 0
43 1 1.7110210465007103e+00 7.0377923818368853e+00 1.7413657928525801e+00 0 0 0
45 1 3.4729674120175864e+00 7.0028692701002848e+00 1.3831748228268532e-02 0 0 0
122 1 1.7451351848517700e+00 5.2286213495706457e+00 3.5336407935068719e+00 0 0 0
141 1 1.7595263411584700e+01 7.0229353246831030e+00 3.5015478460364986e+00 -1 0 0
145 1 3.6086222067462153e+00 7.0681178638930007e+00 3.5490861878586659e+00 0 0 0
26 1 5.2535359476228036e+00 5.2649071552613993e+00 5.7521576492471768e-03 0 0 0
32 1 7.0480284657423304e+00 5.3039310656931784e+00 1.7968583929185982e+00 0 0 0
47 1 5.2778776782145043e+00 7.0358575155816272e+00 1.7680899723787724e+00 0 0 0
49 1 7.0270024922175525e+00 7.0179221927405253e+00 1.7594636180046130e+01 0 0 -1
126 1 5.2987273654253855e+00 5.3167608071158439e+00 3.5397594457897514e+00 0 0 0
149 1 7.0414795443146643e+00 7.0514466510969740e+00 3.5560658150408799e+00 0 0 0
30 1 8.7646576263555609e+00 5.2755724960931349e+00 2.6764347380314182e-03 0 0 0
34 1 1.2355481769667437e+01 5.2853668170672945e+00 1.7578308932977833e+01 0 0 -1
36 1 1.0533160071374208e+01 5.2531453390318710e+00 1.7458101486911279e+00 0 0 0
51 1 8.7709484386437584e+00 7.0199386476910011e+00 1.7625482622035624e+00 0 0 0
53 1 1.0517650715126349e+01 7.0633245745848185e+00 1.4238320669719737e-02 0 0 0
55 1 1.2274480457754031e+01 7.0244514470356307e+00 1.7759331199586448e+00 0 0 0
130 1 8.7321600210517119e+00 5.3126214087359971e+00 3.5470102234528182e+00 0 0 0
134 1 1.2298762454241841e+01 5.2062214448326758e+00 3.5463260346436267e+00 0 0 0
153 1 1.0559613664507681e+01 7.0359835252289118e+00 3.4756202967315120e+00 0 0 0
38 1 1.5831853214992014e+01 5.2996269406149992e+00 2.2487453551214783e-02 0 0 0
40 1 1.4069696811458071e+01 5.2932546812660988e+00 1.7873562999416521e+00 0 0 0
57 1 1.4068457750203848e+01 7.0849285369249806e+00 3.9101389109040381e-02 0 0 0
59 1 1.5856826008589961e+01 7.0671100103013504e+00 1.7024058520934551e+00 0 0 0
138 1 1.5784248229832064e+01 5.2564025197111999e+00 3.5576170570447028e+00 0 0 0
157 1 1.4078782520772537e+01 7.0642291170689342e+00 3.4750417627556196e+00 0 0 0
42 1 1.6495586918550780e+00 8.8176765375738366e+00 1.7549048309708230e+01 0 0 -1
44 1 4.6977460601940833e-03 8.8280130761573758e+00 1.7245402539373054e+00 0 0 0
48 1 3.4982868120468944e+00 8.6874602679708186e+00 1.7099287939139372e+00 0 0 0
61 1 1.7582234949864787e+01 1.0543211900998356e+01 1.7570599129484389e+01 -1 0 -1
62 1 1.7191050959571257e+00 1.2346003651395412e+01 1.7563251854331657e+01 0 0 -1
63 1 1.7545430246918070e+00 1.0551999178453066e+01 1.7454130196396154e+00 0 0 0
64 1 1.7599143670605244e+01 1.2366880862522548e+01 1.7529142707040490e+00 -1 0 0
65 1 3.5076589346203431e+00 1.0563087684969176e+01 1.7597306304656509e+01 0 0 -1
68 1 3.5001136375055615e+00 1.2284228822605190e+01 1.7392000416345506e+00 0 0 0
142 1 1.7228344627322496e+00 8.7773110780540815e+00 3.4753593790387312e+00 0 0 0
161 1 9.2802627633252945e-03 1.0522212003305278e+01 3.4501830042952921e+00 0 0 0
162 1 1.7668626542345567e+00 1.2308593244685515e+01 3.5059386832093096e+00 0 0 0
165 1 3.5415920284587830e+00 1.0526547981445095e+01 3.5321216662067343e+00 0 0 0
46 1 5.2412498327162016e+00 8.7468558821914648e+00 1.7535481209110738e+01 0 0 -1
52 1 7.0353336958304160e+00 8.7950500508584923e+00 1.7294265890377800e+00 0 0 0
66 1 5.2437790108695523e+00 1.2334022565071683e+01 2.6401351063830514e-02 0 0 0
67 1 5.2229605667097152e+00 1.0503748233334067e+01 1.7254509657711159e+00 0 0 0
69 1 6.9768222383919536e+00 1.0584252450187284e+01 3.0196686683510745e-02 0 0 0
72 1 7.0058573294764592e+00 1.2294451840274295e+01 1.7478618809781841e+00 0 0 0
146 1 5.3329404511799634e+00 8.8241460206235089e+00 3.5206971288874049e+00 0 0 0
166 1 5.2947275822885480e+00 1.2295577075363363e+01 3.5349058160831084e+00 0 0 0
169 1 7.0656808169836118e+00 1.0558367440401563e+01 3.4840049739017247e+00 0 0 0
50 1 8.7637437491598948e+00 8.8429734308383345e+00 1.7596717715186756e+01 0 0 -1
54 1 1.2306126752728138e+01 8.7723089775738163e+00 4.8471602787064416e-02 0 0 0
56 1 1.0568064779865443e+01 8.8182049184909257e+00 1.7580346854093094e+00 0 0 0
70 1 8.8909580158485060e+00 1.2337301587716563e+01 1.7576686050860292e+01 0 0 -1
71 1 8.7758977523274098e+00 1.0604037353771556e+01 1.7104460731034341e+00 0 0 0
73 1 1.0591546775511752e+01 1.0524451983338825e+01 2.3473991794999580e-02 0 0 0
74 1 1.2343621927825962e+01 1.2269244383607713e+01 1.7556565805178568e+01 0 0 -1
75 1 1.2322089705393351e+01 1.0528498432702820e+01 1.7888501276719895e+00 0 0 0
76 1 1.0600721848720532e+01 1.2319186412515277e+01 1.7874340436950169e+00 0 0 0
150 1 8.7931721868128552e+00 8.8008366986363420e+00 3.4886520896799311e+00 0 0 0
154 1 1.2293580279808385e+01 8.8033390368239548e+00 3.5591582377246658e+00 0 0 0
170 1 8.8595471321684744e+00 1.2325024466721462e+01 3.5183892944539883e+00 0 0 0
173 1 1.0553065100453944e+01 1.0517140817380437e+01 3.5291048685521003e+00 0 0 0
174 1 1.2362773596031266e+01 1.2329021963156308e+01 3.5219770782416959e+00 0 0 0
58 1 1.5852799679976128e+01 8.8400767011204682e+00 2.7940956961635104e-03 0 0 0
60 1 1.4056128487164447e+01 8.7844377233565645e+00 1.7758997541452979e+00 0 0 0
77 1 1.4094433015664640e+01 1.0522834554082856e+01 1.7593124916324733e+01 0 0 -1
78 1 1.5853941138442597e+01 1.2386695802224237e+01 1.7518657141380796e+01 0 0 -1
79 1 1.5821259829287586e+01 1.0529001258521777e+01 1.7585168792210943e+00 0 0 0
80 1 1.4058213664992980e+01 1.2282383206587109e+01 1.7709519566087788e+00 0 0 0
158 1 1.5868926305032021e+01 8.8267624518003629e+00 3.4908992210189989e+00 0 0 0
177 1 1.4034556042069761e+01 1.0554902115443687e+01 3.5420469811575472e+00 0 0 0
178 1 1.5872154092785884e+01 1.2308458573238545e+01 3.5360979784404680e+00 0 0 0
81 1 1.7579391074998416e+01 1.4142433472953440e+01 6.3769729349622160e-03 -1 0 0
82 1 1.7840572548340849e+00 1.5832632067139196e+01 1.1939066667598930e-03 0 0 0
83 1 1.7607661338682357e+00 1.4028032462107028e+01 1.7099795438742156e+00 0 0 0
84 1 1.7587639991343341e+01 1.5816733260458259e+01 1.7629043271051159e+00 -1 0 0
85 1 3.4882488629819615e+00 1.4077499825355222e+01 1.0024279574450668e-03 0 0 0
88 1 3.5552250140756865e+00 1.5888368953888936e+01 1.7558365031961594e+00 0 0 0
181 1 1.7581545420163593e+01 1.4061068300244155e+01 3.5577291481799036e+00 -1 0 0
182 1 1.7558189299191238e+00 1.5778297340493328e+01 3.5503893318331583e+00 0 0 0
185 1 3.5111468723594044e+00 1.4097556620096835e+01 3.4797832047390984e+00 0 0 0
86 1 5.2919842678551872e+00 1.5796167186235511e+01 1.7595937803573058e+01 0 0 -1
87 1 5.3103878357468854e+00 1.4091105226851445e+01 1.7736745455491016e+00 0 0 0
89 1 7.0666879885117622e+00 1.4074810293465255e+01 1.7591956807964028e+01 0 0 -1
92 1 7.0232074719802586e+00 1.5821977257103480e+01 1.7498622481906405e+00 0 0 0
186 1 5.2587803467918475e+00 1.5826670036402714e+01 3.5295425897143553e+00 0 0 0
189 1 7.0680220400253120e+00 1.4079688087927234e+01 3.5163236312416677e+00 0 0 0
90 1 8.8244104847238862e+00 1.5838362852749293e+01 1.7583011601516226e+01 0 0 -1
91 1 8.8421365941043586e+00 1.4104296502893572e+01 1.7275212167289706e+00 0 0 0
93 1 1.0589981061679545e+01 1.4077763855366962e+01 9.2726276819562288e-04 0 0 0
94 1 1.2388839385985575e+01 1.5851147704604870e+01 3.8736900241209453e-02 0 0 0
95 1 1.2323784765793734e+01 1.4130627931612585e+01 1.7444000594308182e+00 0 0 0
96 1 1.0546411892131710e+01 1.5866861159050950e+01 1.6876342873575985e+00 0 0 0
190 1 8.8176264545318581e+00 1.5830930261462296e+01 3.4636457653835748e+00 0 0 0
193 1 1.0536381629299235e+01 1.4102176298460687e+01 3.5180348987282377e+00 0 0 0
194 1 1.2336610338121657e+01 1.5853458578286261e+01 3.5035097327933573e+00 0 0 0
97 1 1.4078941227759454e+01 1.4055022907467233e+01 1.7584817727925724e+01 0 0 -1
98 1 1.5822765959018794e+01 1.5799037599076662e+01 1.7597099862350728e+01 0 0 -1
99 1 1.5860874506397490e+01 1.4066650474509922e+01 1.7642210167036572e+00 0 0 0
100 1 1.4160809164247448e+01 1.5851075690284160e+01 1.7775784707251250e+00 0 0 0
197 1 1.4107842792519858e+01 1.4061758212610535e+01 3.4830904564083096e+00 0 0 0
198 1 1.5869046259001125e+01 1.5808113996776829e+01 3.5493589392666269e+00 0 0 0
103 1 1.7542136341447576e+00 1.8045597574703834e-03 5.2457964446545304e+00 0 0 0
104 1 4.1576060194907734e-02 1.8092723332636991e+00 5.2819677065407715e+00 0 0 0
108 1 3.4869522790567893e+00 1.7819098480041993e+00 5.2305630690417440e+00 0 0 0
123 1 1.7396326078970910e+00 3.5472754800716770e+00 5.3088848065291767e+00 0 0 0
201 1 1.7595482808528057e+01 9.2681260471516504e-03 7.0067278228775240e+00 -1 0 0
202 1 1.7672887240458532e+00 1.7427900979959452e+00 7.0254861476358972e+00 0 0 0
205 1 3.4787985886721007e+00 1.7574952010396746e+01 7.0587756193810973e+00 0 -1 0
221 1 1.9328447731329450e-02 3.5723288455620499e+00 7.0681339839622526e+00 0 0 0
225 1 3.5521626519362104e+00 3.4875879798019604e+00 6.9746847758973649e+00 0 0 0
107 1 5.2309277882648963e+00 6.6939501226401993e-02 5.2888212859587922e+00 0 0 0
112 1 7.0809683852337564e+00 1.7409770142128203e+00 5.2722345512964113e+00 0 0 0
127 1 5.2911781424958670e+00 3.5247618151090792e+00 5.2707398624507542e+00 0 0 0
206 1 5.2639669257276775e+00 1.7754915085282608e+00 7.0125599804780361e+00 0 0 0
209 1 7.0063194584516086e+00 1.7545639420642100e+01 7.0611574179750711e+00 0 -1 0
229 1 7.0318086877456576e+00 3.5036788753402046e+00 7.0381287605225467e+00 0 0 0
111 1 8.8047092529547228e+00 1.7528691635480474e+01 5.2658107461340018e+00 0 -1 0
115 1 1.2385224031477271e+01 1.0299745177659778e-02 5.2646499938131006e+00 0 0 0
116 1 1.0630885621178862e+01 1.7596941975793048e+00 5.2923782047122163e+00 0 0 0
131 1 8.8359909103483485e+00 3.5000160119426416e+00 5.2825424596143193e+00 0 0 0
135 1 1.2306302664596865e+01 3.5005092189085802e+00 5.3382180264011154e+00 0 0 0
210 1 8.8041763787850318e+00 1.7141734560683834e+00 7.0123231657891694e+00 0 0 0
213 1 1.0596324994155626e+01 1.7536604513851021e+01 6.9936374729343154e+00 0 -1 0
214 1 1.2307803658166263e+01 1.7484234330010271e+00 7.1135704828122659e+00 0 0 0
233 1 1.0550151327242846e+01 3.5065779518242417e+00 7.0684170727153344e+00 0 0 0
119 1 1.5850574791480668e+01 1.7569859826917078e+01 5.2924350677438978e+00 0 -1 0
120 1 1.4084066302968115e+01 1.7912957985606073e+00 5.2944967969945917e+00 0 0 0
139 1 1.5802438890810874e+01 3.5162134416219657e+00 5.2278133808415062e+00 0 0 0
217 1 1.4030099766904076e+01 9.7061024971419312e-03 6.9961322637583176e+00 0 0 0
218 1 1.5816394781988233e+01 1.7568422133423292e+00 7.0228187834004352e+00 0 0 0
237 1 1.4104159995423752e+01 3.5582301723981833e+00 7.0785129578368737e+00 0 0 0
124 1 1.7580356823793881e+01 5.2764555228236016e+00 5.2831095323900890e+00 -1 0 0
128 1 3.5289760352970396e+00 5.2630691948672768e+00 5.2864952474079816e+00 0 0 0
143 1 1.7885600994536757e+00 7.0491879014969943e+00 5.2787812798522049e+00 0 0 0
222 1 1.8277936451826855e+00 5.2499194936488038e+00 7.0743791480615617e+00 0 0 0
241 1 1.7599454709620765e+01 7.0480092805422654e+00 7.0462475859098461e+00 -1 0 0
245 1 3.5424011593419573e+00 6.9864705603978416e+00 7.0679775788090700e+00 0 0 0
132 1 7.0453523400632552e+00 5.2654402561673095e+00 5.3092706347585192e+00 0 0 0
147 1 5.2823481593242825e+00 7.0418615005841039e+00 5.2955155624837964e+00 0 0 0
226 1 5.2980131218807394e+00 5.2638429845780577e+00 7.0351257258898920e+00 0 0 0
249 1 7.0521221667857077e+00 7.0080767770651731e+00 7.0844469031678408e+00 0 0 0
136 1 1.0562886739725917e+01 5.2842634874578618e+00 5.2947522408268322e+00 0 0 0
151 1 8.7836121092135624e+00 7.0391113322914993e+00 5.2615040542262372e+00 0 0 0
155 1 1.2293243352449094e+01 7.0334734964621441e+00 5.3379365807856791e+00 0 0 0
230 1 8.7728651725469184e+00 5.2768803803221314e+00 7.0547037448751624e+00 0 0 0
234 1 1.2270511694227631e+01 5.2480664489466271e+00 7.0350086819379776e+00 0 0 0
253 1 1.0534707213451846e+01 7.0203005872284967e+00 7.0254243587479701e+00 0 0 0
140 1 1.4007256578547009e+01 5.2789358062115230e+00 5.2736719870905944e+00 0 0 0
159 1 1.5839988445763376e+01 7.0307919034502193e+00 5.2750303782715626e+00 0 0 0
238 1 1.5764344481479576e+01 5.3214581427805090e+00 7.0632878545849369e+00 0 0 0
257 1 1.4060657857857590e+01 7.0608922653376229e+00 7.0747504919239788e+00 0 0 0
144 1 1.4925381917275438e-02 8.8101572061858651e+00 5.2938840963884690e+00 0 0 0
148 1 3.5113369081165793e+00 8.7851477646849521e+00 5.2930652471640505e+00 0 0 0
163 1 1.7947891202622945e+00 1.0582549282633419e+01 5.2376997695572678e+00 0 0 0
164 1 1.7549575615679167e+01 1.2299252801243915e+01 5.2935249191504896e+00 -1 0 0
168 1 3.5324025069538449e+00 1.2362294898197861e+01 5.2827204524132219e+00 0 0 0
242 1 1.7923576657187297e+00 8.7697174335344208e+00 7.0374337267933571e+00 0 0 0
261 1 5.7635345369778455e-02 1.0603604989806877e+01 7.0474185098365485e+00 0 0 0
262 1 1.7843282150639201e+00 1.2342968153652857e+01 7.0113035044594643e+00 0 0 0
265 1 3.5239221728548711e+00 1.0544785982753078e+01 7.0852757128765234e+00 0 0 0
152 1 7.0520664210670088e+00 8.8034910363494596e+00 5.2911206242478883e+00 0 0 0
167 1 5.2363893118489937e+00 1.0521108082077031e+01 5.2969263811880962e+00 0 0 0
172 1 7.1179909186907517e+00 1.2309152246486756e+01 5.2778839159393289e+00 0 0 0
246 1 5.3145822110223824e+00 8.7522213807431193e+00 7.0572750075818780e+00 0 0 0
266 1 5.2848778813444577e+00 1.2297381480441544e+01 7.0240993601126824e+00 0 0 0
269 1 7.0498558754992251e+00 1.0528897334431731e+01 7.0602197974145939e+00 0 0 0
156 1 1.0523872112549752e+01 8.7751855707916970e+00 5.3049152764360024e+00 0 0 0
171 1 8.7973758770136978e+00 1.0529667969920769e+01 5.2981685949584980e+00 0 0 0
175 1 1.2268109769263967e+01 1.0579886869035825e+01 5.3481527695120912e+00 0 0 0
176 1 1.0532500322105829e+01 1.2337513794347695e+01 5.2851980403159038e+00 0 0 0
250 1 8.7838869909841879e+00 8.7772185846388862e+00 7.0693656856566429e+00 0 0 0
254 1 1.2310359833165656e+01 8.7884779148387793e+00 7.0898081089664231e+00 0 0 0
270 1 8.7974018024068315e+00 1.2269255036036263e+01 7.0650151228963942e+00 0 0 0
273 1 1.0523061958305798e+01 1.0505700605810944e+01 7.1022896670093951e+00 0 0 0
274 1 1.2275937405410996e+01 1.2322576282623512e+01 7.0582341442105916e+00 0 0 0
160 1 1.4052068241906444e+01 8.7887959584717485e+00 5.2635969936591156e+00 0 0 0
179 1 1.5801580456481181e+01 1.0558271315923179e+01 5.2795517109590877e+00 0 0 0
180 1 1.4014226319065582e+01 1.2258887214122542e+01 5.2650583951395156e+00 0 0 0
258 1 1.5835989992800148e+01 8.8102017636577621e+00 7.0000658819895456e+00 0 0 0
277 1 1.4060725510628641e+01 1.0568575964901106e+01 7.0357667459937616e+00 0 0 0
278 1 1.5815435011343656e+01 1.2307556790350556e+01 7.0058085350173913e+00 0 0 0
183 1 1.7181196485883719e+00 1.4080441403766084e+01 5.2619138581295992e+00 0 0 0
184 1 1.7598143804278575e+01 1.5820710950663042e+01 5.2727540998462210e+00 -1 0 0
188 1 3.4954910995750983e+00 1.5812619306230351e+01 5.2403276826733620e+00 0 0 0
281 1 1.7540386540035996e+01 1.4066975297730874e+01 7.0457944543513511e+00 -1 0 0
282 1 1.7584986763809884e+00 1.5872153530880045e+01 7.0321774494695974e+00 0 0 0
285 1 3.4839539473444692e+00 1.4071030891151413e+01 7.0490405187149587e+00 0 0 0
187 1 5.2883696995349796e+00 1.4055117319370448e+01 5.3052586536871571e+00 0 0 0
192 1 6.9759962285784320e+00 1.5851771869357083e+01 5.2575700047531004e+00 0 0 0
286 1 5.2707002415177096e+00 1.5766436234163670e+01 7.0831636139803971e+00 0 0 0
289 1 7.0376459544290171e+00 1.4068524012996935e+01 7.0362648467667652e+00 0 0 0
191 1 8.7951008431061819e+00 1.4121515308663380e+01 5.2708576326966687e+00 0 0 0
195 1 1.2292698694405393e+01 1.4074295978229721e+01 5.2795038927633540e+00 0 0 0
196 1 1.0559756188916470e+01 1.5824978547997180e+01 5.2357226533845251e+00 0 0 0
290 1 8.8280551412368045e+00 1.5826364641915040e+01 7.0218578191693677e+00 0 0 0
293 1 1.0597531182007023e+01 1.4081355950574553e+01 7.0874036626452783e+00 0 0 0
294 1 1.2377401861021477e+01 1.5800931217595988e+01 6.9986118917553055e+00 0 0 0
199 1 1.5827566895524528e+01 1.4027087941267149e+01 5.2722903210055891e+00 0 0 0
200 1 1.4088645880861641e+01 1.5822942539766645e+01 5.1965862759306747e+00 0 0 0
297 1 1.4049112571261434e+01 1.4067108771211638e+01 7.0126936909590247e+00 0 0 0
298 1 1.5865397757855710e+01 1.5846830499194919e+01 7.0487116339873017e+00 0 0 0
203 1 1.7480545956548745e+00 2.8943131550453381e-02 8.8317129699593711e+00 0 0 0
204 1 1.7597713914736232e+01 1.7648460307782652e+00 8.8210452441179719e+00 -1 0 0
208 1 3.5063822596359566e+00 1.7900697047138663e+00 8.7700165061689308e+00 0 0 0
223 1 1.7730772706101603e+00 3.5270469814272345e+00 8.8415817137391350e+00 0 0 0
301 1 1.5136555664430611e-02 6.5921285775909534e-03 1.0563303491833702e+01 0 0 0
302 1 1.8078873313015267e+00 1.7370928646998094e+00 1.0601963185016286e+01 0 0 0
303 1 1.7340045243189708e+00 1.7589410093168773e+01 1.2332848860631927e+01 0 -1 0
304 1 1.7563321221932686e+01 1.7541868501803157e+00 1.2318581677043380e+01 -1 0 0
305 1 3.5791908570049742e+00 5.8080709253477948e-02 1.0535135766354241e+01 0 0 0
308 1 3.5520892977505221e+00 1.7783015847044017e+00 1.2329356705056467e+01 0 0 0
321 1 4.1493118928660920e-03 3.4478621649719066e+00 1.0594009749781760e+01 0 0 0
323 1 1.7366818708924028e+00 3.4992427000769752e+00 1.2302086609439939e+01 0 0 0
325 1 3.5610971796133892e+00 3.4883273819759175e+00 1.0588195577758713e+01 0 0 0
207 1 5.2783256988494474e+00 2.8850090269840464e-02 8.7217190200727703e+00 0 0 0
212 1 7.0760207107712905e+00 1.7615902907126688e+00 8.8508351763863597e+00 0 0 0
227 1 5.2649243734169096e+00 3.5212792799762633e+00 8.7720467742216819e+00 0 0 0
306 1 5.2724667776878587e+00 1.7310869497904211e+00 1.0550007521536390e+01 0 0 0
307 1 5.3121110449843529e+00 1.7586399077054239e+01 1.2393492757025200e+01 0 -1 0
309 1 7.0432209643219847e+00 1.7526327163736116e+01 1.0510388896119290e+01 0 -1 0
312 1 7.0279057268877292e+00 1.7316298517932562e+00 1.2322029328298658e+01 0 0 0
327 1 5.2784805560261860e+00 3.5461681380966459e+00 1.2335287200544562e+01 0 0 0
329 1 7.0019280282174732e+00 3.5310194146496841e+00 1.0542376572702027e+01 0 0 0
211 1 8.7781830804875103e+00 4.3485410008544757e-02 8.7658204401087527e+00 0 0 0
215 1 1.2335610374192546e+01 1.7584692898424077e+01 8.7714586441818359e+00 0 -1 0
216 1 1.0571799317071342e+01 1.7362582945476086e+00 8.7825843132061614e+00 0 0 0
231 1 8.8313330439132240e+00 3.5209416744523687e+00 8.7781880264699836e+00 0 0 0
235 1 1.2292668442932104e+01 3.5653821556504215e+00 8.8772081895149046e+00 0 0 0
310 1 8.8308942295327739e+00 1.7113627888235208e+00 1.0543112740869761e+01 0 0 0
311 1 8.8444736607283119e+00 2.7709711945934077e-04 1.2306981222732603e+01 0 0 0
313 1 1.0574423491971837e+01 1.7596066955765146e+01 1.0529361475028082e+01 0 -1 0
314 1 1.2308594537729403e+01 1.7886625722961393e+00 1.0517070313885716e+01 0 0 0
315 1 1.2291947862550719e+01 1.8347107426073810e-02 1.2330430423395045e+01 0 0 0
316 1 1.0545804865714587e+01 1.7547237726811040e+00 1.2301721474910657e+01 0 0 0
331 1 8.7551427531240567e+00 3.5327705095457826e+00 1.2338201025085771e+01 0 0 0
333 1 1.0509179420913229e+01 3.5114586919621993e+00 1.0602671240010480e+01 0 0 0
335 1 1.2295750363121099e+01 3.5187335020083719e+00 1.2347122017477137e+01 0 0 0
219 1 1.5872338250701286e+01 1.7563610639823498e+01 8.7314108344351649e+00 0 -1 0
220 1 1.4084767835338932e+01 1.7596600442731285e+00 8.8645089147730705e+00 0 0 0
239 1 1.5857041996981035e+01 3.5106928984632693e+00 8.8266825426543161e+00 0 0 0
317 1 1.4072069452029067e+01 2.1120721635079730e-02 1.0562130371025360e+01 0 0 0
318 1 1.5762377044560566e+01 1.7720709087774098e+00 1.0625255156944300e+01 0 0 0
319 1 1.5910259141927087e+01 1.7585077390412284e+01 1.2342122889240526e+01 0 -1 0
320 1 1.4048966396699177e+01 1.7628502996500424e+00 1.2315779590933863e+01 0 0 0
337 1 1.4055631760846254e+01 3.5201935807615303e+00 1.0611096739416285e+01 0 0 0
339 1 1.5806659130324462e+01 3.5707697761738308e+00 1.2285708553079104e+01 0 0 0
224 1 5.1775375915367378e-02 5.2518737591668412e+00 8.8253238371297904e+00 0 0 0
228 1 3.5452962594134383e+00 5.2055907920667401e+00 8.8093524107654044e+00 0 0 0
243 1 1.7551183350431792e+00 7.0394157115173597e+00 8.7770330624625785e+00 0 0 0
322 1 1.7853231989110359e+00 5.2730857015553054e+00 1.0523002412093193e+01 0 0 0
324 1 1.7547167624152060e+01 5.2704082272903294e+00 1.2302917366120059e+01 -1 0 0
328 1 3.4834894428130685e+00 5.2780429424834718e+00 1.2277983761104471e+01 0 0 0
341 1 1.4436520867766388e-02 7.0397258132258012e+00 1.0606690020525093e+01 0 0 0
343 1 1.7468311748526317e+00 6.9799379206821106e+00 1.2377330127556462e+01 0 0 0
345 1 3.4914627912782596e+00 7.0518777924916982e+00 1.0560612062756826e+01 0 0 0
232 1 6.9754473019144640e+00 5.2367948132613522e+00 8.7812210012116196e+00 0 0 0
247 1 5.2493482974089387e+00 7.0258006073948227e+00 8.8603830794884892e+00 0 0 0
326 1 5.3249984018286476e+00 5.2565142147106885e+00 1.0596556933984454e+01 0 0 0
332 1 7.0664552548429524e+00 5.3104509526887123e+00 1.2320001919036610e+01 0 0 0
347 1 5.2294931318392992e+00 7.0815190342433647e+00 1.2334069153853198e+01 0 0 0
349 1 7.0654858164984020e+00 7.0836231661224733e+00 1.0577407401283207e+01 0 0 0
236 1 1.0576912673814697e+01 5.3048672641067638e+00 8.8220088384898556e+00 0 0 0
251 1 8.8543226651939602e+00 7.0438018418896471e+00 8.8070308984704155e+00 0 0 0
255 1 1.2288870754416516e+01 7.0381064049645392e+00 8.8192625590611069e+00 0 0 0
330 1 8.7929499616075706e+00 5.3019949216541340e+00 1.0589541275266086e+01 0 0 0
334 1 1.2334471820719262e+01 5.2723430013415458e+00 1.0602067068641158e+01 0 0 0
336 1 1.0602251323375675e+01 5.3083880611688503e+00 1.2344845958442082e+01 0 0 0
351 1 8.8466346490123957e+00 7.0955297639048762e+00 1.2320554091801762e+01 0 0 0
353 1 1.0537445180157372e+01 7.0421227446259440e+00 1.0565089637664668e+01 0 0 0
355 1 1.2376207538668801e+01 7.1057956300281910e+00 1.2289909154054717e+01 0 0 0
240 1 1.4066847370726414e+01 5.3170530389987594e+00 8.8264285480612603e+00 0 0 0
259 1 1.5830975171334003e+01 7.1011035371804141e+00 8.8384751102975336e+00 0 0 0
338 1 1.5841473163953532e+01 5.2858325229736174e+00 1.0548187939654339e+01 0 0 0
340 1 1.4111960171700407e+01 5.3135753526241887e+00 1.2326206077430202e+01 0 0 0
357 1 1.4091958885626806e+01 7.0373124802935925e+00 1.0592197152035537e+01 0 0 0
359 1 1.5833401747670557e+01 7.1075704520799388e+00 1.2307504281767219e+01 0 0 0
244 1 1.7594967958532568e+01 8.8365451152520542e+00 8.7354153745043543e+00 -1 0 0
248 1 3.5168659161435127e+00 8.7703501376761750e+00 8.7710111317513011e+00 0 0 0
263 1 1.7273479736862403e+00 1.0621665398694500e+01 8.8183452840753045e+00 0 0 0
264 1 1.7594171227509225e+01 1.2385561081671403e+01 8.7910991551468864e+00 -1 0 0
268 1 3.5176762107756816e+00 1.2315026410545647e+01 8.8122961505494057e+00 0 0 0
342 1 1.7719482569668321e+00 8.8060954068592991e+00 1.0556293922364885e+01 0 0 0
344 1 7.4708347111961212e-02 8.8392451038898088e+00 1.2328222322893589e+01 0 0 0
348 1 3.4882212431307233e+00 8.8074419594925946e+00 1.2328679839323625e+01 0 0 0
361 1 1.7580256071136827e+01 1.0536689562995070e+01 1.0543608340212767e+01 -1 0 0
362 1 1.7473020004198110e+00 1.2321187557487587e+01 1.0505518764757836e+01 0 0 0
363 1 1.7841115288665570e+00 1.0577743786916562e+01 1.2332955754594568e+01 0 0 0
364 1 2.3043644023430628e-02 1.2375542115577074e+01 1.2271155538099624e+01 0 0 0
365 1 3.5689996051788517e+00 1.0561091834188558e+01 1.0493297189552784e+01 0 0 0
368 1 3.5226416146899120e+00 1.2363226227446136e+01 1.2351521666990752e+01 0 0 0
252 1 7.0490640537924936e+00 8.7721420076116203e+00 8.8124840321869140e+00 0 0 0
267 1 5.2639531673152442e+00 1.0573128151117148e+01 8.7569180831485021e+00 0 0 0
272 1 7.0803984613812005e+00 1.2305317825140998e+01 8.7589610477301232e+00 0 0 0
346 1 5.3025305318770481e+00 8.8384650345183076e+00 1.0563244081514897e+01 0 0 0
352 1 6.9861906057183925e+00 8.7858169202721932e+00 1.2380702246576709e+01 0 0 0
366 1 5.2810341409020740e+00 1.2301044652025155e+01 1.0564284007913500e+01 0 0 0
367 1 5.2851536205645830e+00 1.0541295572121399e+01 1.2343388097595389e+01 0 0 0
369 1 7.0380391164801690e+00 1.0561316468208728e+01 1.0559065314263673e+01 0 0 0
372 1 7.0500415783783534e+00 1.2309944350887163e+01 1.2363367079111027e+01 0 0 0
256 1 1.0558635021411718e+01 8.8252718343726073e+00 8.8280568509761324e+00 0 0 0
271 1 8.7845414361876006e+00 1.0551408903633643e+01 8.7961687533093649e+00 0 0 0
275 1 1.2319280650433342e+01 1.0581049448931227e+01 8.7789728096156914e+00 0 0 0
276 1 1.0551445159635225e+01 1.2317067517950676e+01 8.8248235738772056e+00 0 0 0
350 1 8.7646149612285615e+00 8.8009435653390042e+00 1.0584331439449997e+01 0 0 0
354 1 1.2359991429407311e+01 8.8749699924330621e+00 1.0554553399174855e+01 0 0 0
356 1 1.0542100855149164e+01 8.8003806744222519e+00 1.2339043463158955e+01 0 0 0
370 1 8.7784310777328862e+00 1.2362623793452261e+01 1.0557848759937940e+01 0 0 0
371 1 8.8086352515074520e+00 1.0542689075894938e+01 1.2336529777388535e+01 0 0 0
373 1 1.0535474316642455e+01 1.0531346219309510e+01 1.0550540394435146e+01 0 0 0
374 1 1.2364201966131219e+01 1.2322071915655258e+01 1.0601276527741620e+01 0 0 0
375 1 1.2280881866515019e+01 1.0537034942956252e+01 1.2288183420571082e+01 0 0 0
376 1 1.0522246783224553e+01 1.2318353005525873e+01 1.2271618755432739e+01 0 0 0
260 1 1.4092901293841260e+01 8.8288231666514498e+00 8.7776653872152597e+00 0 0 0
279 1 1.5845410751751970e+01 1.0561052285117473e+01 8.8203955639991314e+00 0 0 0
280 1 1.4075023169499152e+01 1.2340802992368205e+01 8.7378218554532179e+00 0 0 0
358 1 1.5836733846203638e+01 8.8161205164918215e+00 1.0616003746885124e+01 0 0 0
360 1 1.4072391922020849e+01 8.8319579381195084e+00 1.2371547206543312e+01 0 0 0
377 1 1.4106852941073008e+01 1.0581383991597294e+01 1.0484269347103805e+01 0 0 0