LAMMPS (31 Mar 2017)
Lattice spacing in x,y,z = 3.52 3.52 3.52
Created orthogonal box = (0 0 0) to (56.32 56.32 56.32)
  1 by 1 by 1 MPI processor grid
Created 16384 atoms
16384 atoms in group Ni
Setting atom values ...
  5452 settings made for type/fraction
10932 atoms in group Ni
Setting atom values ...
  5438 settings made for type/fraction
5494 atoms in group Ni
5452 atoms in group Fe
5438 atoms in group Cr

Flag read: 7 -> 7
Friction evaluation: ON
Random evaluation: ON
FDM grid solving: ON


Model read: 4 -> 4
PRL 120, 185501 (2018)

Neighbor list info ...
  update every 1 steps, delay 10 steps, check yes
  max neighbors/atom: 2000, page size: 100000
  master list distance cutoff = 7.6
  ghost atom cutoff = 7.6
  binsize = 3.8, bins = 15 15 15
  2 neighbor lists, perpetual/occasional/extra = 2 0 0
  (1) pair eam/alloy, perpetual, half/full from (2)
      attributes: half, newton on
      pair build: halffull/newton
      stencil: none
      bin: none
  (2) fix eph, perpetual
      attributes: full, newton on
      pair build: full/bin/atomonly
      stencil: full/bin/3d
      bin: standard
Setting up Verlet run ...
  Unit style    : metal
  Current step  : 0
  Time step     : 0.0001
Per MPI rank memory allocation (min/avg/max) = 26.61 | 26.61 | 26.61 Mbytes
Step Time Temp Press PotEng KinEng TotEng 
       0            0          600    10136.848   -68787.097    1270.6014   -67516.496 
Loop time of 2.14577e-06 on 1 procs for 0 steps with 16384 atoms

186.4% CPU use with 1 MPI tasks x no OpenMP threads

MPI task timing breakdown:
Section |  min time  |  avg time  |  max time  |%varavg| %total
---------------------------------------------------------------
Pair    | 0          | 0          | 0          |   0.0 |  0.00
Neigh   | 0          | 0          | 0          |   0.0 |  0.00
Comm    | 0          | 0          | 0          |   0.0 |  0.00
Output  | 0          | 0          | 0          |   0.0 |  0.00
Modify  | 0          | 0          | 0          |   0.0 |  0.00
Other   |            | 2.146e-06  |            |       |100.00

Nlocal:    16384 ave 16384 max 16384 min
Histogram: 1 0 0 0 0 0 0 0 0 0
Nghost:    18077 ave 18077 max 18077 min
Histogram: 1 0 0 0 0 0 0 0 0 0
Neighs:    1.44179e+06 ave 1.44179e+06 max 1.44179e+06 min
Histogram: 1 0 0 0 0 0 0 0 0 0
FullNghs:  2.88358e+06 ave 2.88358e+06 max 2.88358e+06 min
Histogram: 1 0 0 0 0 0 0 0 0 0

Total # of neighbors = 2883584
Ave neighs/atom = 176
Neighbor list builds = 0
Dangerous builds = 0
Setting up Verlet run ...
  Unit style    : metal
  Current step  : 0
  Time step     : 0.0001
Per MPI rank memory allocation (min/avg/max) = 26.61 | 26.61 | 26.61 Mbytes
Step Time Temp Press PotEng KinEng TotEng 
       0            0          600    10136.848   -68787.097    1270.6014   -67516.496 
    1000          0.1    362.27829    18109.954   -68285.472    767.18549   -67518.286 
    2000          0.2    331.06639    18586.446    -68221.42    701.08902   -67520.331 
    3000          0.3    323.00435    19120.558   -68205.034    684.01629   -67521.018 
    4000          0.4    317.34146    19164.394   -68193.129    672.02415   -67521.105 
    5000          0.5    320.65156    19216.404   -68200.193    679.03385   -67521.159 
    6000          0.6    321.11436    19172.958    -68200.89    680.01391   -67520.877 
    7000          0.7    317.52662      19428.6   -68192.876    672.41626   -67520.459 
    8000          0.8    319.06972    18959.758   -68196.233    675.68404   -67520.549 
    9000          0.9    319.73179    19065.172   -68199.159    677.08608   -67522.073 
   10000            1    321.68431    19056.042   -68202.419    681.22088   -67521.198 
Loop time of 2348.5 on 1 procs for 10000 steps with 16384 atoms

Performance: 0.037 ns/day, 652.360 hours/ns, 4.258 timesteps/s
97.4% CPU use with 1 MPI tasks x no OpenMP threads

MPI task timing breakdown:
Section |  min time  |  avg time  |  max time  |%varavg| %total
---------------------------------------------------------------
Pair    | 597.18     | 597.18     | 597.18     |   0.0 | 25.43
Neigh   | 0          | 0          | 0          |   0.0 |  0.00
Comm    | 4.0758     | 4.0758     | 4.0758     |   0.0 |  0.17
Output  | 0.00086808 | 0.00086808 | 0.00086808 |   0.0 |  0.00
Modify  | 1746.2     | 1746.2     | 1746.2     |   0.0 | 74.35
Other   |            | 1.071      |            |       |  0.05

Nlocal:    16384 ave 16384 max 16384 min
Histogram: 1 0 0 0 0 0 0 0 0 0
Nghost:    18077 ave 18077 max 18077 min
Histogram: 1 0 0 0 0 0 0 0 0 0
Neighs:    1.44179e+06 ave 1.44179e+06 max 1.44179e+06 min
Histogram: 1 0 0 0 0 0 0 0 0 0
FullNghs:  2.88358e+06 ave 2.88358e+06 max 2.88358e+06 min
Histogram: 1 0 0 0 0 0 0 0 0 0

Total # of neighbors = 2883584
Ave neighs/atom = 176
Neighbor list builds = 0
Dangerous builds = 0
Total wall time: 0:39:08
