LAMMPS (31 Mar 2017)
Lattice spacing in x,y,z = 3.52 3.52 3.52
Created orthogonal box = (0 0 0) to (56.32 56.32 56.32)
  1 by 1 by 1 MPI processor grid
Created 16384 atoms

Flag read: 7 -> 7
Friction evaluation: ON
Random evaluation: ON
FDM grid solving: ON


Model read: 4 -> 4
PRL 120, 185501 (2018)

Neighbor list info ...
  update every 1 steps, delay 10 steps, check yes
  max neighbors/atom: 2000, page size: 100000
  master list distance cutoff = 8.5
  ghost atom cutoff = 8.5
  binsize = 4.25, bins = 14 14 14
  2 neighbor lists, perpetual/occasional/extra = 2 0 0
  (1) pair eam/alloy, perpetual, half/full from (2)
      attributes: half, newton on
      pair build: halffull/newton
      stencil: none
      bin: none
  (2) fix eph, perpetual
      attributes: full, newton on
      pair build: full/bin/atomonly
      stencil: full/bin/3d
      bin: standard
Setting up Verlet run ...
  Unit style    : metal
  Current step  : 0
  Time step     : 0.0001
Per MPI rank memory allocation (min/avg/max) = 31.18 | 31.18 | 31.18 Mbytes
Step Time Temp Press PotEng KinEng TotEng 
       0            0          600    7596.9699     -72908.8    1270.6014   -71638.198 
Loop time of 2.14577e-06 on 1 procs for 0 steps with 16384 atoms

279.6% CPU use with 1 MPI tasks x no OpenMP threads

MPI task timing breakdown:
Section |  min time  |  avg time  |  max time  |%varavg| %total
---------------------------------------------------------------
Pair    | 0          | 0          | 0          |   0.0 |  0.00
Neigh   | 0          | 0          | 0          |   0.0 |  0.00
Comm    | 0          | 0          | 0          |   0.0 |  0.00
Output  | 0          | 0          | 0          |   0.0 |  0.00
Modify  | 0          | 0          | 0          |   0.0 |  0.00
Other   |            | 2.146e-06  |            |       |100.00

Nlocal:    16384 ave 16384 max 16384 min
Histogram: 1 0 0 0 0 0 0 0 0 0
Nghost:    18077 ave 18077 max 18077 min
Histogram: 1 0 0 0 0 0 0 0 0 0
Neighs:    1.83501e+06 ave 1.83501e+06 max 1.83501e+06 min
Histogram: 1 0 0 0 0 0 0 0 0 0
FullNghs:  3.67002e+06 ave 3.67002e+06 max 3.67002e+06 min
Histogram: 1 0 0 0 0 0 0 0 0 0

Total # of neighbors = 3670016
Ave neighs/atom = 224
Neighbor list builds = 0
Dangerous builds = 0
Setting up Verlet run ...
  Unit style    : metal
  Current step  : 0
  Time step     : 0.0001
Per MPI rank memory allocation (min/avg/max) = 31.18 | 31.18 | 31.18 Mbytes
Step Time Temp Press PotEng KinEng TotEng 
       0            0          600    7596.9699     -72908.8    1270.6014   -71638.198 
    1000          0.1    331.88386    11742.143   -72340.944    702.82014   -71638.124 
    2000          0.2    270.41282    12680.066   -72210.418    572.64484   -71637.774 
    3000          0.3    280.30708    12294.541   -72231.557    593.59761    -71637.96 
    4000          0.4    302.52022    11963.162   -72277.415    640.63767   -71636.777 
    5000          0.5     300.9037    12058.302    -72273.96    637.21442   -71636.745 
    6000          0.6    295.53356    12136.774   -72262.448    625.84225   -71636.606 
    7000          0.7     297.1526    12085.707    -72265.44    629.27084   -71636.169 
    8000          0.8    298.70693    12046.248   -72268.577     632.5624   -71636.014 
    9000          0.9    303.70609     12056.59   -72278.022    643.14896   -71634.873 
   10000            1    303.30279      12017.1   -72277.306     642.2949   -71635.011 
Loop time of 9068.24 on 1 procs for 10000 steps with 16384 atoms

Performance: 0.010 ns/day, 2518.956 hours/ns, 1.103 timesteps/s
99.8% CPU use with 1 MPI tasks x no OpenMP threads

MPI task timing breakdown:
Section |  min time  |  avg time  |  max time  |%varavg| %total
---------------------------------------------------------------
Pair    | 507.79     | 507.79     | 507.79     |   0.0 |  5.60
Neigh   | 0          | 0          | 0          |   0.0 |  0.00
Comm    | 3.2103     | 3.2103     | 3.2103     |   0.0 |  0.04
Output  | 0.00074077 | 0.00074077 | 0.00074077 |   0.0 |  0.00
Modify  | 8556.2     | 8556.2     | 8556.2     |   0.0 | 94.35
Other   |            | 0.9948     |            |       |  0.01

Nlocal:    16384 ave 16384 max 16384 min
Histogram: 1 0 0 0 0 0 0 0 0 0
Nghost:    18077 ave 18077 max 18077 min
Histogram: 1 0 0 0 0 0 0 0 0 0
Neighs:    1.83501e+06 ave 1.83501e+06 max 1.83501e+06 min
Histogram: 1 0 0 0 0 0 0 0 0 0
FullNghs:  3.67002e+06 ave 3.67002e+06 max 3.67002e+06 min
Histogram: 1 0 0 0 0 0 0 0 0 0

Total # of neighbors = 3670016
Ave neighs/atom = 224
Neighbor list builds = 0
Dangerous builds = 0
Total wall time: 2:31:15
