LAMMPS (31 Mar 2017)

# initialisation
units metal
# mass -> grams/mole
# distance -> Angstroms (A)
# time -> picoseconds (ps)
# energy -> eV
# velocity -> A/ps
# force -> eV/A
# torque -> eV
# temperature -> K
# pressure -> bars
# dynamic viscosity -> Poise
# charge -> e
# dipole -> e*A
# electric field -> V/A
# density -> gram/cm^3

atom_style atomic

boundary p p p
atom_modify map array

######################
### create the box ###
######################

## box size ##
variable n equal 8
variable n_2 equal floor(${n}/2)
variable n_2 equal floor(8/2)

## lattice constant ##
variable a equal 3.52

variable x index $n
variable x index 8
variable y index $n
variable y index 8
variable z index $n
variable z index 8

## lattice type ##
lattice fcc $a
lattice fcc 3.52
Lattice spacing in x,y,z = 3.52 3.52 3.52
region box block 0 $x 0 $y 0 $z
region box block 0 8 0 $y 0 $z
region box block 0 8 0 8 0 $z
region box block 0 8 0 8 0 8

## create box for two atom types ##
create_box 2 box
Created orthogonal box = (0 0 0) to (28.16 28.16 28.16)
  1 by 1 by 1 MPI processor grid
## fill box with atoms ##
create_atoms 1 box
Created 2048 atoms

## potential in use ##
pair_style eam/alloy
pair_coeff * * Ni.eam Ni Ni

## create a vacancy in the center of the box ##
# we need a vacancy somewhere (center of the box)
region pka sphere ${n_2} ${n_2} ${n_2} 0.1 side in
region pka sphere 4 ${n_2} ${n_2} 0.1 side in
region pka sphere 4 4 ${n_2} 0.1 side in
region pka sphere 4 4 4 0.1 side in
delete_atoms region pka
Deleted 1 atoms, new total = 2047
region pka delete

## put atom type 2 (Ni) at vacancy position ##
# we create an interstitial somewhere else
create_atoms 2 single ${n_2} ${n_2} ${n_2}
create_atoms 2 single 4 ${n_2} ${n_2}
create_atoms 2 single 4 4 ${n_2}
create_atoms 2 single 4 4 4
Created 1 atoms
group pka type 2
1 atoms in group pka

########################
### Set PKA velocity ###
########################

## SUB_VEL is substituted by sed ##
# we give it some velocity
variable vvx equal 0.835115
variable vvy equal 0.543981
variable vvz equal 0.081652

variable vel equal 573.39111597

variable vx equal ${vel}*${vvx}
variable vx equal 573.39111597*${vvx}
variable vx equal 573.39111597*0.835115
variable vy equal ${vel}*${vvy}
variable vy equal 573.39111597*${vvy}
variable vy equal 573.39111597*0.543981
variable vz equal ${vel}*${vvz}
variable vz equal 573.39111597*${vvz}
variable vz equal 573.39111597*0.081652

## set PKA energy to the selected atom ##
velocity pka set ${vx} ${vy} ${vz} units box
velocity pka set 478.847521813287 ${vy} ${vz} units box
velocity pka set 478.847521813287 311.913872656477 ${vz} units box
velocity pka set 478.847521813287 311.913872656477 46.8185314011824 units box

#############################
### Find largest velocity ###
#############################

variable vv atom sqrt(vx*vx+vy*vy+vz*vz)
compute maxv all reduce max v_vv

#####################################
### Initial intergration timestep ###
#####################################

## initial timestep; atom should not move more than 10 uA in one timestep ##
variable maxA equal 1.0e-3
variable tau equal 1.0/${vel}
variable tau equal 1.0/573.39111597
variable dt equal ${maxA}*${tau}
variable dt equal 0.001*${tau}
variable dt equal 0.001*0.00174401027875765
timestep ${dt}
timestep 1.74401027875765e-06

## print stuff into stdout every 1000 steps (atoms moves about 1A in that time) ##
thermo_style custom step time temp press pe ke etotal c_maxv
thermo 1000

compute keatom all ke/atom

################################
### Integrator and eph model ###
################################

## use velocity verlet integration
#fix integrate all nve

## eph model ##
## model is applied only to the PKA atom (a small error is created because of this) ##
fix friction all eph 1111 7 4 1.0 3.5e-6 0.1248 0.0 7 8 9 NULL 0 T_out Ni.beta Ni Ni
run 0
Neighbor list info ...
  update every 1 steps, delay 10 steps, check yes
  max neighbors/atom: 2000, page size: 100000
  master list distance cutoff = 8.5
  ghost atom cutoff = 8.5
  binsize = 4.25, bins = 7 7 7
  2 neighbor lists, perpetual/occasional/extra = 2 0 0
  (1) pair eam/alloy, perpetual, half/full from (2)
      attributes: half, newton on
      pair build: halffull/newton
      stencil: none
      bin: none
  (2) fix eph, perpetual
      attributes: full, newton on
      pair build: full/bin/atomonly
      stencil: full/bin/3d
      bin: standard
Per MPI rank memory allocation (min/avg/max) = 6.617 | 6.617 | 6.617 Mbytes
Step Time Temp Press PotEng KinEng TotEng c_maxv 
       0            0    3780.4192    47845.773      -9113.6     1000.282    -8113.318    573.39096 
Loop time of 1.19209e-06 on 1 procs for 0 steps with 2048 atoms

83.9% CPU use with 1 MPI tasks x no OpenMP threads

MPI task timing breakdown:
Section |  min time  |  avg time  |  max time  |%varavg| %total
---------------------------------------------------------------
Pair    | 0          | 0          | 0          |   0.0 |  0.00
Neigh   | 0          | 0          | 0          |   0.0 |  0.00
Comm    | 0          | 0          | 0          |   0.0 |  0.00
Output  | 0          | 0          | 0          |   0.0 |  0.00
Modify  | 0          | 0          | 0          |   0.0 |  0.00
Other   |            | 1.192e-06  |            |       |100.00

Nlocal:    2048 ave 2048 max 2048 min
Histogram: 1 0 0 0 0 0 0 0 0 0
Nghost:    5765 ave 5765 max 5765 min
Histogram: 1 0 0 0 0 0 0 0 0 0
Neighs:    229376 ave 229376 max 229376 min
Histogram: 1 0 0 0 0 0 0 0 0 0
FullNghs:  458752 ave 458752 max 458752 min
Histogram: 1 0 0 0 0 0 0 0 0 0

Total # of neighbors = 458752
Ave neighs/atom = 224
Neighbor list builds = 0
Dangerous builds = 0

#################################
### Dump coordinates          ###
### velocities forces and     ###
### kinetic energy            ###
#################################

## create trajactory file where atom moves at the most 0.1 A
#dump myDump all custom 1000 strucs.dump type x y z vx vy vz fx fy fz c_keatom
#dump_modify myDump sort id

#################################
### these are for output file ###
#################################
variable N equal count(all)
print "Number of atoms: $N"
Number of atoms: 2048

variable xe equal x[$N]
variable xe equal x[2048]
variable ye equal y[$N]
variable ye equal y[2048]
variable ze equal z[$N]
variable ze equal z[2048]

variable Ep equal pe
variable Ek equal ke
variable Ee equal f_friction[1]
variable Te equal f_friction[2]

variable rho equal f_friction[$N][1]
variable rho equal f_friction[2048][1]
variable beta equal f_friction[$N][2]
variable beta equal f_friction[2048][2]

# print in nice format
variable fxe format xe "%.12e"
variable fye format ye "%.12e"
variable fze format ze "%.12e"

variable fEp format Ep "%.12e"
variable fEk format Ek "%.12e"
variable fEe format Ee "%.12e"
variable fTe format Te "%.12e"

variable frho format rho "%.12e"
variable fbeta format beta "%.12e"

#################################################################
### print output every time atom has moved at the most 0.01 A ###
#################################################################

fix out all print 1000 "$(step) $(time) $(temp) ${Te} ${fxe} ${fye} ${fze} ${fEp} ${fEk} ${fEe} ${frho} ${fbeta}" file out.data screen no

########################################
### loop until 1 ps has been reached ###
########################################

variable T_total equal 0.0
variable T_new equal 0.0

#########################################
### calculate kinetic energy per-atom ###
#########################################

label time_loop

variable dtold equal ${dt}
variable dtold equal 1.74401027875765e-06
variable velo equal c_maxv
variable tau equal 1.0/${velo}
variable tau equal 1.0/573.390955618286
variable dt equal ${maxA}*${tau}
variable dt equal 0.001*${tau}
variable dt equal 0.001*0.00174401076647905
variable dtratio equal ${dtold}/${dt}
variable dtratio equal 1.74401027875765e-06/${dt}
variable dtratio equal 1.74401027875765e-06/1.74401076647905e-06

if "${dtratio} > 1.2" then "variable dt equal ${dtold}*0.8"
if "${dtratio} < 0.8" then "variable dt equal ${dtold}*1.2"

if "${dt} > 0.001" then "variable dt equal 0.001"

print "Timestep: ${dt}"
Timestep: 1.74401076647905e-06
timestep ${dt}
timestep 1.74401076647905e-06

## run until atom has traveled 1 A ##
run 10000
Per MPI rank memory allocation (min/avg/max) = 6.742 | 6.742 | 6.742 Mbytes
Step Time Temp Press PotEng KinEng TotEng c_maxv 
       0            0    3780.4192    47845.773      -9113.6     1000.282    -8113.318    573.39096 
    1000 0.0017440108    3743.2286     48731.31   -9104.3984    990.44152   -8113.9569    570.55801 
    2000 0.0034880215    2773.4919    64783.528   -8860.4165    733.85351    -8126.563    469.16555 
    3000 0.0052320323    3581.5581    48986.421   -9089.7402    947.66422    -8142.076    446.32882 
    4000 0.0069760431    3501.5341    50232.426   -9072.5066    926.49024   -8146.0164    438.18596 
    5000 0.0087200538    3422.8265    51954.016   -9053.7112    905.66454   -8148.0466    432.59781 
    6000  0.010464065     3412.513     52201.66   -9053.3056    902.93565   -8150.3699     432.8132 
    7000  0.012208075    3252.2652    54242.933   -9013.9032    860.53478   -8153.3684    426.89358 
    8000  0.013952086    3265.6986    53537.755   -9023.0947    864.08921   -8159.0055    423.81227 
    9000  0.015696097    2918.8082    62047.582   -8939.0154    772.30358   -8166.7118    343.49643 
   10000  0.017440108    3314.8176    50766.818   -9055.4591    877.08588   -8178.3732    341.48353 
Loop time of 288.322 on 1 procs for 10000 steps with 2048 atoms

Performance: 0.005 ns/day, 4592.256 hours/ns, 34.683 timesteps/s
100.0% CPU use with 1 MPI tasks x no OpenMP threads

MPI task timing breakdown:
Section |  min time  |  avg time  |  max time  |%varavg| %total
---------------------------------------------------------------
Pair    | 63.98      | 63.98      | 63.98      |   0.0 | 22.19
Neigh   | 0.12071    | 0.12071    | 0.12071    |   0.0 |  0.04
Comm    | 0.70862    | 0.70862    | 0.70862    |   0.0 |  0.25
Output  | 0.0011322  | 0.0011322  | 0.0011322  |   0.0 |  0.00
Modify  | 223.36     | 223.36     | 223.36     |   0.0 | 77.47
Other   |            | 0.1527     |            |       |  0.05

Nlocal:    2048 ave 2048 max 2048 min
Histogram: 1 0 0 0 0 0 0 0 0 0
Nghost:    5766 ave 5766 max 5766 min
Histogram: 1 0 0 0 0 0 0 0 0 0
Neighs:    229426 ave 229426 max 229426 min
Histogram: 1 0 0 0 0 0 0 0 0 0
FullNghs:  458852 ave 458852 max 458852 min
Histogram: 1 0 0 0 0 0 0 0 0 0

Total # of neighbors = 458852
Ave neighs/atom = 224.049
Neighbor list builds = 7
Dangerous builds = 0

variable T_new equal 10000*${dt}+${T_total}
variable T_new equal 10000*1.74401076647905e-06+${T_total}
variable T_new equal 10000*1.74401076647905e-06+0
variable T_total equal ${T_new}
variable T_total equal 0.0174401076647905
print "Total time: ${T_total}"
Total time: 0.0174401076647905

## check if 1 ps has passed ##
if "${T_total} > 1.0" then "jump SELF loop_end"
jump SELF time_loop

variable dtold equal ${dt}
variable dtold equal 1.74401076647905e-06
variable velo equal c_maxv
variable tau equal 1.0/${velo}
variable tau equal 1.0/341.483534600984
variable dt equal ${maxA}*${tau}
variable dt equal 0.001*${tau}
variable dt equal 0.001*0.00292839887922701
variable dtratio equal ${dtold}/${dt}
variable dtratio equal 1.74401076647905e-06/${dt}
variable dtratio equal 1.74401076647905e-06/2.92839887922701e-06

if "${dtratio} > 1.2" then "variable dt equal ${dtold}*0.8"
if "${dtratio} < 0.8" then "variable dt equal ${dtold}*1.2"
variable dt equal ${dtold}*1.2
variable dt equal 1.74401076647905e-06*1.2

if "${dt} > 0.001" then "variable dt equal 0.001"

print "Timestep: ${dt}"
Timestep: 2.09281291977486e-06
timestep ${dt}
timestep 2.09281291977486e-06

## run until atom has traveled 1 A ##
run 10000
Per MPI rank memory allocation (min/avg/max) = 6.742 | 6.742 | 6.742 Mbytes
Step Time Temp Press PotEng KinEng TotEng c_maxv 
   10000  0.017440108    3314.8176    50766.818   -9055.4591    877.08588   -8178.3732    341.48353 
   11000  0.019532921    3097.6191    54679.858   -9004.2121    819.61612    -8184.596    318.01731 
   12000  0.021625734    2821.8829    60414.376   -8939.1737    746.65757   -8192.5161    287.12927 
   13000  0.023718546    3029.8639    54976.893   -9005.9983    801.68841   -8204.3099    326.24667 
   14000  0.025811359    2907.4946    56797.508   -8979.5417    769.31003   -8210.2316    312.19849 
   15000  0.027904172    2806.7494     58719.07   -8956.8579     742.6533   -8214.2045    299.36131 
   16000  0.029996985    2821.4763    59301.837    -8966.309    746.54997   -8219.7591    291.85048 
   17000  0.032089798    2704.6146    60895.207    -8938.938    715.62889   -8223.3091    280.13147 
   18000  0.034182611    2709.8561    61742.554   -8946.0044    717.01578   -8228.9886     277.9391 
   19000  0.036275424    2599.8819    64485.803   -8920.1592    687.91709   -8232.2421    268.62421 
   20000  0.038368237    2554.8199    65998.364   -8911.0736     675.9939   -8235.0797    247.95389 
Loop time of 279.104 on 1 procs for 10000 steps with 2048 atoms

Performance: 0.006 ns/day, 3704.526 hours/ns, 35.829 timesteps/s
99.9% CPU use with 1 MPI tasks x no OpenMP threads

MPI task timing breakdown:
Section |  min time  |  avg time  |  max time  |%varavg| %total
---------------------------------------------------------------
Pair    | 64.401     | 64.401     | 64.401     |   0.0 | 23.07
Neigh   | 0.089686   | 0.089686   | 0.089686   |   0.0 |  0.03
Comm    | 0.67086    | 0.67086    | 0.67086    |   0.0 |  0.24
Output  | 0.0011435  | 0.0011435  | 0.0011435  |   0.0 |  0.00
Modify  | 213.79     | 213.79     | 213.79     |   0.0 | 76.60
Other   |            | 0.1464     |            |       |  0.05

Nlocal:    2048 ave 2048 max 2048 min
Histogram: 1 0 0 0 0 0 0 0 0 0
Nghost:    5772 ave 5772 max 5772 min
Histogram: 1 0 0 0 0 0 0 0 0 0
Neighs:    229637 ave 229637 max 229637 min
Histogram: 1 0 0 0 0 0 0 0 0 0
FullNghs:  459274 ave 459274 max 459274 min
Histogram: 1 0 0 0 0 0 0 0 0 0

Total # of neighbors = 459274
Ave neighs/atom = 224.255
Neighbor list builds = 6
Dangerous builds = 0

variable T_new equal 10000*${dt}+${T_total}
variable T_new equal 10000*2.09281291977486e-06+${T_total}
variable T_new equal 10000*2.09281291977486e-06+0.0174401076647905
variable T_total equal ${T_new}
variable T_total equal 0.0383682368625391
print "Total time: ${T_total}"
Total time: 0.0383682368625391

## check if 1 ps has passed ##
if "${T_total} > 1.0" then "jump SELF loop_end"
jump SELF time_loop

variable dtold equal ${dt}
variable dtold equal 2.09281291977486e-06
variable velo equal c_maxv
variable tau equal 1.0/${velo}
variable tau equal 1.0/247.953892046886
variable dt equal ${maxA}*${tau}
variable dt equal 0.001*${tau}
variable dt equal 0.001*0.0040330078779764
variable dtratio equal ${dtold}/${dt}
variable dtratio equal 2.09281291977486e-06/${dt}
variable dtratio equal 2.09281291977486e-06/4.0330078779764e-06

if "${dtratio} > 1.2" then "variable dt equal ${dtold}*0.8"
if "${dtratio} < 0.8" then "variable dt equal ${dtold}*1.2"
variable dt equal ${dtold}*1.2
variable dt equal 2.09281291977486e-06*1.2

if "${dt} > 0.001" then "variable dt equal 0.001"

print "Timestep: ${dt}"
Timestep: 2.51137550372983e-06
timestep ${dt}
timestep 2.51137550372983e-06

## run until atom has traveled 1 A ##
run 10000
Per MPI rank memory allocation (min/avg/max) = 6.742 | 6.742 | 6.742 Mbytes
Step Time Temp Press PotEng KinEng TotEng c_maxv 
   20000  0.038368237    2554.8199    65998.364   -8911.0736     675.9939   -8235.0797    247.95389 
   21000  0.040879612    2620.1435    64955.088   -8931.1846    693.27824   -8237.9064    250.63127 
   22000  0.043390988     2458.006    68010.944   -8893.1376    650.37738   -8242.7602    226.94829 
   23000  0.045902363    2280.1924    71543.789   -8847.4859     603.3287   -8244.1572    165.75465 
   24000  0.048413739    2376.4149     70911.22   -8875.5817    628.78873    -8246.793    213.83717 
   25000  0.050925114    2348.7648    72510.507    -8870.069    621.47263   -8248.5964    213.72064 
   26000   0.05343649    2282.7005    75066.303   -8853.6145    603.99233   -8249.6222     208.7185 
   27000  0.055947865    2198.6928    76607.626   -8833.0043    581.76426   -8251.2401    188.09138 
   28000  0.058459241    2109.8695    77862.893   -8810.5959    558.26201   -8252.3339    128.66332 
   29000  0.060970616    2241.1717    77585.497   -8849.8805    593.00399   -8256.8765     192.6178 
   30000  0.063481992     2199.406    79856.415     -8840.57    581.95296    -8258.617    197.98545 
Loop time of 286.208 on 1 procs for 10000 steps with 2048 atoms

Performance: 0.008 ns/day, 3165.688 hours/ns, 34.940 timesteps/s
99.9% CPU use with 1 MPI tasks x no OpenMP threads

MPI task timing breakdown:
Section |  min time  |  avg time  |  max time  |%varavg| %total
---------------------------------------------------------------
Pair    | 68.914     | 68.914     | 68.914     |   0.0 | 24.08
Neigh   | 0.061301   | 0.061301   | 0.061301   |   0.0 |  0.02
Comm    | 0.68582    | 0.68582    | 0.68582    |   0.0 |  0.24
Output  | 0.0011642  | 0.0011642  | 0.0011642  |   0.0 |  0.00
Modify  | 216.4      | 216.4      | 216.4      |   0.0 | 75.61
Other   |            | 0.1489     |            |       |  0.05

Nlocal:    2048 ave 2048 max 2048 min
Histogram: 1 0 0 0 0 0 0 0 0 0
Nghost:    5803 ave 5803 max 5803 min
Histogram: 1 0 0 0 0 0 0 0 0 0
Neighs:    230228 ave 230228 max 230228 min
Histogram: 1 0 0 0 0 0 0 0 0 0
FullNghs:  460456 ave 460456 max 460456 min
Histogram: 1 0 0 0 0 0 0 0 0 0

Total # of neighbors = 460456
Ave neighs/atom = 224.832
Neighbor list builds = 4
Dangerous builds = 0

variable T_new equal 10000*${dt}+${T_total}
variable T_new equal 10000*2.51137550372983e-06+${T_total}
variable T_new equal 10000*2.51137550372983e-06+0.0383682368625391
variable T_total equal ${T_new}
variable T_total equal 0.0634819918998374
print "Total time: ${T_total}"
Total time: 0.0634819918998374

## check if 1 ps has passed ##
if "${T_total} > 1.0" then "jump SELF loop_end"
jump SELF time_loop

variable dtold equal ${dt}
variable dtold equal 2.51137550372983e-06
variable velo equal c_maxv
variable tau equal 1.0/${velo}
variable tau equal 1.0/197.985447481987
variable dt equal ${maxA}*${tau}
variable dt equal 0.001*${tau}
variable dt equal 0.001*0.00505087627761622
variable dtratio equal ${dtold}/${dt}
variable dtratio equal 2.51137550372983e-06/${dt}
variable dtratio equal 2.51137550372983e-06/5.05087627761622e-06

if "${dtratio} > 1.2" then "variable dt equal ${dtold}*0.8"
if "${dtratio} < 0.8" then "variable dt equal ${dtold}*1.2"
variable dt equal ${dtold}*1.2
variable dt equal 2.51137550372983e-06*1.2

if "${dt} > 0.001" then "variable dt equal 0.001"

print "Timestep: ${dt}"
Timestep: 3.0136506044758e-06
timestep ${dt}
timestep 3.0136506044758e-06

## run until atom has traveled 1 A ##
run 10000
Per MPI rank memory allocation (min/avg/max) = 6.742 | 6.742 | 6.742 Mbytes
Step Time Temp Press PotEng KinEng TotEng c_maxv 
   30000  0.063481992     2199.406    79856.415     -8840.57    581.95296    -8258.617    197.98545 
   31000  0.066495643    2078.5001    82518.438   -8809.4926    549.96181   -8259.5308     189.9006 
   32000  0.069509293    1986.7983    84978.226   -8786.1636    525.69793   -8260.4656    177.45406 
   33000  0.072522944    1878.5456    87493.221   -8758.5781    497.05473   -8261.5233    116.94618 
   34000  0.075536594    2007.9948    85065.825   -8794.0441    531.30641   -8262.7377    157.38996 
   35000  0.078550245    1992.2058    85843.407   -8791.1866    527.12873   -8264.0579    160.79383 
   36000  0.081563896     1878.974    88022.528    -8761.756     497.1681   -8264.5879    140.58463 
   37000  0.084577546    1819.6534    90695.814     -8746.71    481.47214   -8265.2378    119.78392 
   38000  0.087591197    1806.9338     92402.14   -8743.3512    478.10659   -8265.2446    113.87168 
   39000  0.090604847    1749.0361    94305.846    -8727.927    462.78711   -8265.1399    103.24408 
   40000  0.093618498    1680.9768    96904.847   -8710.4045    444.77892   -8265.6256     95.63201 
Loop time of 296.234 on 1 procs for 10000 steps with 2048 atoms

Performance: 0.009 ns/day, 2730.484 hours/ns, 33.757 timesteps/s
99.9% CPU use with 1 MPI tasks x no OpenMP threads

MPI task timing breakdown:
Section |  min time  |  avg time  |  max time  |%varavg| %total
---------------------------------------------------------------
Pair    | 75.101     | 75.101     | 75.101     |   0.0 | 25.35
Neigh   | 0.045605   | 0.045605   | 0.045605   |   0.0 |  0.02
Comm    | 0.69642    | 0.69642    | 0.69642    |   0.0 |  0.24
Output  | 0.0011981  | 0.0011981  | 0.0011981  |   0.0 |  0.00
Modify  | 220.24     | 220.24     | 220.24     |   0.0 | 74.35
Other   |            | 0.1517     |            |       |  0.05

Nlocal:    2048 ave 2048 max 2048 min
Histogram: 1 0 0 0 0 0 0 0 0 0
Nghost:    5851 ave 5851 max 5851 min
Histogram: 1 0 0 0 0 0 0 0 0 0
Neighs:    231029 ave 231029 max 231029 min
Histogram: 1 0 0 0 0 0 0 0 0 0
FullNghs:  462058 ave 462058 max 462058 min
Histogram: 1 0 0 0 0 0 0 0 0 0

Total # of neighbors = 462058
Ave neighs/atom = 225.614
Neighbor list builds = 3
Dangerous builds = 0

variable T_new equal 10000*${dt}+${T_total}
variable T_new equal 10000*3.0136506044758e-06+${T_total}
variable T_new equal 10000*3.0136506044758e-06+0.0634819918998374
variable T_total equal ${T_new}
variable T_total equal 0.0936184979445954
print "Total time: ${T_total}"
Total time: 0.0936184979445954

## check if 1 ps has passed ##
if "${T_total} > 1.0" then "jump SELF loop_end"
jump SELF time_loop

variable dtold equal ${dt}
variable dtold equal 3.0136506044758e-06
variable velo equal c_maxv
variable tau equal 1.0/${velo}
variable tau equal 1.0/95.6320096946161
variable dt equal ${maxA}*${tau}
variable dt equal 0.001*${tau}
variable dt equal 0.001*0.0104567498183226
variable dtratio equal ${dtold}/${dt}
variable dtratio equal 3.0136506044758e-06/${dt}
variable dtratio equal 3.0136506044758e-06/1.04567498183226e-05

if "${dtratio} > 1.2" then "variable dt equal ${dtold}*0.8"
if "${dtratio} < 0.8" then "variable dt equal ${dtold}*1.2"
variable dt equal ${dtold}*1.2
variable dt equal 3.0136506044758e-06*1.2

if "${dt} > 0.001" then "variable dt equal 0.001"

print "Timestep: ${dt}"
Timestep: 3.61638072537096e-06
timestep ${dt}
timestep 3.61638072537096e-06

## run until atom has traveled 1 A ##
run 10000
Per MPI rank memory allocation (min/avg/max) = 6.742 | 6.742 | 6.742 Mbytes
Step Time Temp Press PotEng KinEng TotEng c_maxv 
   40000  0.093618498    1680.9768    96904.847   -8710.4045    444.77892   -8265.6256     95.63201 
   41000  0.097234879    1658.2321    97604.677    -8704.784    438.76077   -8266.0232    89.944337 
   42000   0.10085126     1639.874    97375.619   -8700.8117    433.90332   -8266.9084    94.133589 
   43000   0.10446764    1619.7836    96741.096   -8695.2993    428.58748   -8266.7119    82.955902 
   44000   0.10808402    1606.3918    96510.242   -8691.1154    425.04407   -8266.0713    63.420577 
   45000    0.1117004     1597.766    97810.484   -8688.3357    422.76171    -8265.574    66.191372 
   46000   0.11531678    1557.7176    98187.362   -8678.5585     412.1651   -8266.3934    68.813551 
   47000   0.11893316    1511.1954    99727.838   -8665.6294    399.85552   -8265.7738    72.672792 
   48000   0.12254954    1482.6358    100126.65   -8658.4368    392.29878    -8266.138    68.605498 
   49000   0.12616592    1480.8369    100439.75   -8658.1817     391.8228   -8266.3589    60.994776 
   50000   0.12978231    1470.3131    99830.043   -8656.7082    389.03825   -8267.6699    59.849323 
Loop time of 276.628 on 1 procs for 10000 steps with 2048 atoms

Performance: 0.011 ns/day, 2124.809 hours/ns, 36.150 timesteps/s
100.0% CPU use with 1 MPI tasks x no OpenMP threads

MPI task timing breakdown:
Section |  min time  |  avg time  |  max time  |%varavg| %total
---------------------------------------------------------------
Pair    | 75.084     | 75.084     | 75.084     |   0.0 | 27.14
Neigh   | 0.029131   | 0.029131   | 0.029131   |   0.0 |  0.01
Comm    | 0.63755    | 0.63755    | 0.63755    |   0.0 |  0.23
Output  | 0.0011489  | 0.0011489  | 0.0011489  |   0.0 |  0.00
Modify  | 200.74     | 200.74     | 200.74     |   0.0 | 72.57
Other   |            | 0.1404     |            |       |  0.05

Nlocal:    2048 ave 2048 max 2048 min
Histogram: 1 0 0 0 0 0 0 0 0 0
Nghost:    5944 ave 5944 max 5944 min
Histogram: 1 0 0 0 0 0 0 0 0 0
Neighs:    233196 ave 233196 max 233196 min
Histogram: 1 0 0 0 0 0 0 0 0 0
FullNghs:  466392 ave 466392 max 466392 min
Histogram: 1 0 0 0 0 0 0 0 0 0

Total # of neighbors = 466392
Ave neighs/atom = 227.73
Neighbor list builds = 2
Dangerous builds = 0

variable T_new equal 10000*${dt}+${T_total}
variable T_new equal 10000*3.61638072537096e-06+${T_total}
variable T_new equal 10000*3.61638072537096e-06+0.0936184979445954
variable T_total equal ${T_new}
variable T_total equal 0.129782305198305
print "Total time: ${T_total}"
Total time: 0.129782305198305

## check if 1 ps has passed ##
if "${T_total} > 1.0" then "jump SELF loop_end"
jump SELF time_loop

variable dtold equal ${dt}
variable dtold equal 3.61638072537096e-06
variable velo equal c_maxv
variable tau equal 1.0/${velo}
variable tau equal 1.0/59.8493229496181
variable dt equal ${maxA}*${tau}
variable dt equal 0.001*${tau}
variable dt equal 0.001*0.0167086267766439
variable dtratio equal ${dtold}/${dt}
variable dtratio equal 3.61638072537096e-06/${dt}
variable dtratio equal 3.61638072537096e-06/1.67086267766439e-05

if "${dtratio} > 1.2" then "variable dt equal ${dtold}*0.8"
if "${dtratio} < 0.8" then "variable dt equal ${dtold}*1.2"
variable dt equal ${dtold}*1.2
variable dt equal 3.61638072537096e-06*1.2

if "${dt} > 0.001" then "variable dt equal 0.001"

print "Timestep: ${dt}"
Timestep: 4.33965687044515e-06
timestep ${dt}
timestep 4.33965687044515e-06

## run until atom has traveled 1 A ##
run 10000
Per MPI rank memory allocation (min/avg/max) = 6.742 | 6.742 | 6.742 Mbytes
Step Time Temp Press PotEng KinEng TotEng c_maxv 
   50000   0.12978231    1470.3131    99830.043   -8656.7082    389.03825   -8267.6699    59.849323 
   51000   0.13412196    1440.7496    99513.763   -8648.8262    381.21588   -8267.6104    54.424312 
   52000   0.13846162    1399.2356    100083.97   -8637.4963    370.23148   -8267.2648    50.571305 
   53000   0.14280128    1370.1795    101036.78   -8629.1302    362.54336   -8266.5868    52.017995 
   54000   0.14714093    1349.1026    102084.68   -8623.2019    356.96651   -8266.2354     57.34213 
   55000   0.15148059      1321.77    102734.78   -8616.3569    349.73441   -8266.6224    49.478712 
   56000   0.15582025    1300.2479    102914.06   -8610.5251    344.03976   -8266.4853    43.895967 
   57000    0.1601599    1288.5894    103871.51   -8606.9824    340.95497   -8266.0274     45.13691 
   58000   0.16449956    1289.5258    103838.54   -8606.7454    341.20273   -8265.5427    52.462532 
   59000   0.16883922    1289.5853    103119.67   -8606.6831    341.21849   -8265.4646    49.983653 
   60000   0.17317887    1280.5027    103920.58   -8604.0309    338.81528   -8265.2157    41.671501 
Loop time of 283.531 on 1 procs for 10000 steps with 2048 atoms

Performance: 0.013 ns/day, 1814.860 hours/ns, 35.269 timesteps/s
100.0% CPU use with 1 MPI tasks x no OpenMP threads

MPI task timing breakdown:
Section |  min time  |  avg time  |  max time  |%varavg| %total
---------------------------------------------------------------
Pair    | 82.055     | 82.055     | 82.055     |   0.0 | 28.94
Neigh   | 0.014291   | 0.014291   | 0.014291   |   0.0 |  0.01
Comm    | 0.65015    | 0.65015    | 0.65015    |   0.0 |  0.23
Output  | 0.001204   | 0.001204   | 0.001204   |   0.0 |  0.00
Modify  | 200.67     | 200.67     | 200.67     |   0.0 | 70.77
Other   |            | 0.1423     |            |       |  0.05

Nlocal:    2048 ave 2048 max 2048 min
Histogram: 1 0 0 0 0 0 0 0 0 0
Nghost:    6036 ave 6036 max 6036 min
Histogram: 1 0 0 0 0 0 0 0 0 0
Neighs:    234965 ave 234965 max 234965 min
Histogram: 1 0 0 0 0 0 0 0 0 0
FullNghs:  469930 ave 469930 max 469930 min
Histogram: 1 0 0 0 0 0 0 0 0 0

Total # of neighbors = 469930
Ave neighs/atom = 229.458
Neighbor list builds = 1
Dangerous builds = 0

variable T_new equal 10000*${dt}+${T_total}
variable T_new equal 10000*4.33965687044515e-06+${T_total}
variable T_new equal 10000*4.33965687044515e-06+0.129782305198305
variable T_total equal ${T_new}
variable T_total equal 0.173178873902756
print "Total time: ${T_total}"
Total time: 0.173178873902756

## check if 1 ps has passed ##
if "${T_total} > 1.0" then "jump SELF loop_end"
jump SELF time_loop

variable dtold equal ${dt}
variable dtold equal 4.33965687044515e-06
variable velo equal c_maxv
variable tau equal 1.0/${velo}
variable tau equal 1.0/41.6715007108503
variable dt equal ${maxA}*${tau}
variable dt equal 0.001*${tau}
variable dt equal 0.001*0.0239972159135518
variable dtratio equal ${dtold}/${dt}
variable dtratio equal 4.33965687044515e-06/${dt}
variable dtratio equal 4.33965687044515e-06/2.39972159135518e-05

if "${dtratio} > 1.2" then "variable dt equal ${dtold}*0.8"
if "${dtratio} < 0.8" then "variable dt equal ${dtold}*1.2"
variable dt equal ${dtold}*1.2
variable dt equal 4.33965687044515e-06*1.2

if "${dt} > 0.001" then "variable dt equal 0.001"

print "Timestep: ${dt}"
Timestep: 5.20758824453418e-06
timestep ${dt}
timestep 5.20758824453418e-06

## run until atom has traveled 1 A ##
run 10000
Per MPI rank memory allocation (min/avg/max) = 6.745 | 6.745 | 6.745 Mbytes
Step Time Temp Press PotEng KinEng TotEng c_maxv 
   60000   0.17317887    1280.5027    103920.58   -8604.0309    338.81528   -8265.2157    41.671501 
   61000   0.17838646    1258.9962    104462.06   -8598.4236    333.12474   -8265.2989    37.558356 
   62000   0.18359405    1253.6369    104827.98   -8596.7396    331.70669   -8265.0329    45.421846 
   63000   0.18880164    1254.2611    104572.25   -8596.3419    331.87187     -8264.47    43.150093 
   64000   0.19400923    1247.5113    103833.09   -8594.0517     330.0859   -8263.9658    30.969573 
   65000   0.19921682    1242.6449    103407.47   -8592.1579    328.79827   -8263.3596    34.334545 
   66000    0.2044244    1227.6953    104021.73    -8587.537    324.84266   -8262.6943    42.216784 
   67000   0.20963199    1202.4823    104790.44   -8580.8008    318.17142   -8262.6294    38.049642 
   68000   0.21483958    1193.7676    104183.44   -8578.2556    315.86555   -8262.3901    27.683902 
   69000   0.22004717    1203.2251    103002.72   -8580.5263    318.36798   -8262.1583    31.071984 
   70000   0.22525476    1213.1078    102010.76   -8583.7059    320.98288    -8262.723    38.272402 
Loop time of 288.688 on 1 procs for 10000 steps with 2048 atoms

Performance: 0.016 ns/day, 1539.892 hours/ns, 34.639 timesteps/s
100.0% CPU use with 1 MPI tasks x no OpenMP threads

MPI task timing breakdown:
Section |  min time  |  avg time  |  max time  |%varavg| %total
---------------------------------------------------------------
Pair    | 87.713     | 87.713     | 87.713     |   0.0 | 30.38
Neigh   | 0.015056   | 0.015056   | 0.015056   |   0.0 |  0.01
Comm    | 0.65465    | 0.65465    | 0.65465    |   0.0 |  0.23
Output  | 0.0012343  | 0.0012343  | 0.0012343  |   0.0 |  0.00
Modify  | 200.16     | 200.16     | 200.16     |   0.0 | 69.34
Other   |            | 0.142      |            |       |  0.05

Nlocal:    2048 ave 2048 max 2048 min
Histogram: 1 0 0 0 0 0 0 0 0 0
Nghost:    6173 ave 6173 max 6173 min
Histogram: 1 0 0 0 0 0 0 0 0 0
Neighs:    238242 ave 238242 max 238242 min
Histogram: 1 0 0 0 0 0 0 0 0 0
FullNghs:  476484 ave 476484 max 476484 min
Histogram: 1 0 0 0 0 0 0 0 0 0

Total # of neighbors = 476484
Ave neighs/atom = 232.658
Neighbor list builds = 1
Dangerous builds = 0

variable T_new equal 10000*${dt}+${T_total}
variable T_new equal 10000*5.20758824453418e-06+${T_total}
variable T_new equal 10000*5.20758824453418e-06+0.173178873902756
variable T_total equal ${T_new}
variable T_total equal 0.225254756348098
print "Total time: ${T_total}"
Total time: 0.225254756348098

## check if 1 ps has passed ##
if "${T_total} > 1.0" then "jump SELF loop_end"
jump SELF time_loop

variable dtold equal ${dt}
variable dtold equal 5.20758824453418e-06
variable velo equal c_maxv
variable tau equal 1.0/${velo}
variable tau equal 1.0/38.2724018641636
variable dt equal ${maxA}*${tau}
variable dt equal 0.001*${tau}
variable dt equal 0.001*0.0261284881871067
variable dtratio equal ${dtold}/${dt}
variable dtratio equal 5.20758824453418e-06/${dt}
variable dtratio equal 5.20758824453418e-06/2.61284881871067e-05

if "${dtratio} > 1.2" then "variable dt equal ${dtold}*0.8"
if "${dtratio} < 0.8" then "variable dt equal ${dtold}*1.2"
variable dt equal ${dtold}*1.2
variable dt equal 5.20758824453418e-06*1.2

if "${dt} > 0.001" then "variable dt equal 0.001"

print "Timestep: ${dt}"
Timestep: 6.24910589344102e-06
timestep ${dt}
timestep 6.24910589344102e-06

## run until atom has traveled 1 A ##
run 10000
Per MPI rank memory allocation (min/avg/max) = 6.748 | 6.748 | 6.748 Mbytes
Step Time Temp Press PotEng KinEng TotEng c_maxv 
   70000   0.22525476    1213.1078    102010.76   -8583.7059    320.98288    -8262.723    38.272402 
   71000   0.23150386    1219.1913    101474.59   -8585.0175    322.59256   -8262.4249    36.770684 
   72000   0.23775297    1221.1428    101009.86   -8584.8756    323.10892   -8261.7667     26.02277 
   73000   0.24400207    1227.8337    100354.79   -8586.8117    324.87929   -8261.9324    26.030524 
   74000   0.25025118    1242.6765    100065.35   -8590.3231    328.80664   -8261.5164    33.328813 
   75000   0.25650029    1262.6911    98924.044    -8594.963    334.10241   -8260.8606    33.490292 
   76000   0.26274939     1283.878    97749.348   -8600.0083    339.70835   -8260.2999    29.944009 
   77000    0.2689985    1300.0441    96662.984   -8604.1602    343.98585   -8260.1744    25.867262 
   78000    0.2752476    1309.0302    96176.098   -8606.5371    346.36352   -8260.1736    30.184244 
   79000   0.28149671    1310.1962    95459.232   -8607.3319    346.67204   -8260.6599    31.192489 
   80000   0.28774582    1316.4677    94551.116   -8607.9853    348.33146   -8259.6538    30.005695 
Loop time of 321.587 on 1 procs for 10000 steps with 2048 atoms

Performance: 0.017 ns/day, 1429.482 hours/ns, 31.096 timesteps/s
100.0% CPU use with 1 MPI tasks x no OpenMP threads

MPI task timing breakdown:
Section |  min time  |  avg time  |  max time  |%varavg| %total
---------------------------------------------------------------
Pair    | 98.867     | 98.867     | 98.867     |   0.0 | 30.74
Neigh   | 0.016128   | 0.016128   | 0.016128   |   0.0 |  0.01
Comm    | 0.7647     | 0.7647     | 0.7647     |   0.0 |  0.24
Output  | 0.001143   | 0.001143   | 0.001143   |   0.0 |  0.00
Modify  | 221.78     | 221.78     | 221.78     |   0.0 | 68.96
Other   |            | 0.1564     |            |       |  0.05

Nlocal:    2048 ave 2048 max 2048 min
Histogram: 1 0 0 0 0 0 0 0 0 0
Nghost:    6283 ave 6283 max 6283 min
Histogram: 1 0 0 0 0 0 0 0 0 0
Neighs:    238984 ave 238984 max 238984 min
Histogram: 1 0 0 0 0 0 0 0 0 0
FullNghs:  477968 ave 477968 max 477968 min
Histogram: 1 0 0 0 0 0 0 0 0 0

Total # of neighbors = 477968
Ave neighs/atom = 233.383
Neighbor list builds = 1
Dangerous builds = 0

variable T_new equal 10000*${dt}+${T_total}
variable T_new equal 10000*6.24910589344102e-06+${T_total}
variable T_new equal 10000*6.24910589344102e-06+0.225254756348098
variable T_total equal ${T_new}
variable T_total equal 0.287745815282508
print "Total time: ${T_total}"
Total time: 0.287745815282508

## check if 1 ps has passed ##
if "${T_total} > 1.0" then "jump SELF loop_end"
jump SELF time_loop

variable dtold equal ${dt}
variable dtold equal 6.24910589344102e-06
variable velo equal c_maxv
variable tau equal 1.0/${velo}
variable tau equal 1.0/30.0056954120539
variable dt equal ${maxA}*${tau}
variable dt equal 0.001*${tau}
variable dt equal 0.001*0.0333270062988868
variable dtratio equal ${dtold}/${dt}
variable dtratio equal 6.24910589344102e-06/${dt}
variable dtratio equal 6.24910589344102e-06/3.33270062988868e-05

if "${dtratio} > 1.2" then "variable dt equal ${dtold}*0.8"
if "${dtratio} < 0.8" then "variable dt equal ${dtold}*1.2"
variable dt equal ${dtold}*1.2
variable dt equal 6.24910589344102e-06*1.2

if "${dt} > 0.001" then "variable dt equal 0.001"

print "Timestep: ${dt}"
Timestep: 7.49892707212922e-06
timestep ${dt}
timestep 7.49892707212922e-06

## run until atom has traveled 1 A ##
run 10000
Per MPI rank memory allocation (min/avg/max) = 6.748 | 6.748 | 6.748 Mbytes
Step Time Temp Press PotEng KinEng TotEng c_maxv 
   80000   0.28774582    1316.4677    94551.116   -8607.9853    348.33146   -8259.6538    30.005695 
   81000   0.29524474     1311.828    93728.683   -8605.9766     347.1038   -8258.8728    25.676398 
   82000   0.30274367    1305.8596    93715.308   -8603.1845    345.52459   -8257.6599    27.136553 
   83000    0.3102426    1299.4678    93741.832   -8600.9377    343.83336   -8257.1044    27.994633 
   84000   0.31774152     1296.377    93777.461   -8599.9828    343.01556   -8256.9673    27.100887 
   85000   0.32524045    1301.3825    93219.338   -8600.7984    344.33999   -8256.4584    34.344238 
   86000   0.33273938    1303.0468    93100.195   -8599.9447    344.78035   -8255.1643    30.424751 
   87000    0.3402383    1305.6376    92621.532   -8599.8747    345.46587   -8254.4089    22.973768 
   88000   0.34773723    1322.2147    91792.803   -8603.8607    349.85209   -8254.0086    31.955893 
   89000   0.35523616    1339.6958    90531.078   -8608.2393    354.47749   -8253.7618    33.748604 
   90000   0.36273509    1356.2875    89649.238   -8612.4258    358.86758   -8253.5582    29.260853 
Loop time of 288.371 on 1 procs for 10000 steps with 2048 atoms

Performance: 0.022 ns/day, 1068.194 hours/ns, 34.678 timesteps/s
100.0% CPU use with 1 MPI tasks x no OpenMP threads

MPI task timing breakdown:
Section |  min time  |  avg time  |  max time  |%varavg| %total
---------------------------------------------------------------
Pair    | 88.308     | 88.308     | 88.308     |   0.0 | 30.62
Neigh   | 0.014304   | 0.014304   | 0.014304   |   0.0 |  0.00
Comm    | 0.67696    | 0.67696    | 0.67696    |   0.0 |  0.23
Output  | 0.001194   | 0.001194   | 0.001194   |   0.0 |  0.00
Modify  | 199.23     | 199.23     | 199.23     |   0.0 | 69.09
Other   |            | 0.1443     |            |       |  0.05

Nlocal:    2048 ave 2048 max 2048 min
Histogram: 1 0 0 0 0 0 0 0 0 0
Nghost:    6238 ave 6238 max 6238 min
Histogram: 1 0 0 0 0 0 0 0 0 0
Neighs:    238577 ave 238577 max 238577 min
Histogram: 1 0 0 0 0 0 0 0 0 0
FullNghs:  477154 ave 477154 max 477154 min
Histogram: 1 0 0 0 0 0 0 0 0 0

Total # of neighbors = 477154
Ave neighs/atom = 232.985
Neighbor list builds = 1
Dangerous builds = 0

variable T_new equal 10000*${dt}+${T_total}
variable T_new equal 10000*7.49892707212922e-06+${T_total}
variable T_new equal 10000*7.49892707212922e-06+0.287745815282508
variable T_total equal ${T_new}
variable T_total equal 0.3627350860038
print "Total time: ${T_total}"
Total time: 0.3627350860038

## check if 1 ps has passed ##
if "${T_total} > 1.0" then "jump SELF loop_end"
jump SELF time_loop

variable dtold equal ${dt}
variable dtold equal 7.49892707212922e-06
variable velo equal c_maxv
variable tau equal 1.0/${velo}
variable tau equal 1.0/29.2608534943978
variable dt equal ${maxA}*${tau}
variable dt equal 0.001*${tau}
variable dt equal 0.001*0.0341753530939026
variable dtratio equal ${dtold}/${dt}
variable dtratio equal 7.49892707212922e-06/${dt}
variable dtratio equal 7.49892707212922e-06/3.41753530939026e-05

if "${dtratio} > 1.2" then "variable dt equal ${dtold}*0.8"
if "${dtratio} < 0.8" then "variable dt equal ${dtold}*1.2"
variable dt equal ${dtold}*1.2
variable dt equal 7.49892707212922e-06*1.2

if "${dt} > 0.001" then "variable dt equal 0.001"

print "Timestep: ${dt}"
Timestep: 8.99871248655506e-06
timestep ${dt}
timestep 8.99871248655506e-06

## run until atom has traveled 1 A ##
run 10000
Per MPI rank memory allocation (min/avg/max) = 6.748 | 6.748 | 6.748 Mbytes
Step Time Temp Press PotEng KinEng TotEng c_maxv 
   90000   0.36273509    1356.2875    89649.238   -8612.4258    358.86758   -8253.5582    29.260853 
   91000    0.3717338    1382.4596    88304.592   -8618.3853    365.79261   -8252.5927    23.092276 
   92000   0.38073251    1398.6778    87816.577   -8622.1077    370.08388   -8252.0239    24.478102 
   93000   0.38973122    1418.9643    86439.105   -8626.8042    375.45159   -8251.3526      24.7411 
   94000   0.39872994    1434.0938    85604.153   -8630.2946    379.45478   -8250.8398    24.224881 
   95000   0.40772865    1457.4667    84260.116   -8636.0211    385.63915    -8250.382    24.889825 
   96000   0.41672736    1492.4296    82340.345   -8645.0328    394.89017   -8250.1426    24.434528 
   97000   0.42572607     1520.046    80076.888   -8652.4644    402.19736    -8250.267    24.055197 
   98000   0.43472479     1519.498    79749.934    -8652.277    402.05236   -8250.2247    23.890125 
   99000    0.4437235    1503.0404    79305.904   -8647.4099    397.69774   -8249.7122    22.670911 
  100000   0.45272221    1482.1524    79692.668   -8641.0375    392.17089   -8248.8667    23.205686 
Loop time of 287.613 on 1 procs for 10000 steps with 2048 atoms

Performance: 0.027 ns/day, 887.821 hours/ns, 34.769 timesteps/s
100.0% CPU use with 1 MPI tasks x no OpenMP threads

MPI task timing breakdown:
Section |  min time  |  avg time  |  max time  |%varavg| %total
---------------------------------------------------------------
Pair    | 87.337     | 87.337     | 87.337     |   0.0 | 30.37
Neigh   | 0.014469   | 0.014469   | 0.014469   |   0.0 |  0.01
Comm    | 0.6606     | 0.6606     | 0.6606     |   0.0 |  0.23
Output  | 0.0011961  | 0.0011961  | 0.0011961  |   0.0 |  0.00
Modify  | 199.46     | 199.46     | 199.46     |   0.0 | 69.35
Other   |            | 0.1421     |            |       |  0.05

Nlocal:    2048 ave 2048 max 2048 min
Histogram: 1 0 0 0 0 0 0 0 0 0
Nghost:    6048 ave 6048 max 6048 min
Histogram: 1 0 0 0 0 0 0 0 0 0
Neighs:    235994 ave 235994 max 235994 min
Histogram: 1 0 0 0 0 0 0 0 0 0
FullNghs:  471988 ave 471988 max 471988 min
Histogram: 1 0 0 0 0 0 0 0 0 0

Total # of neighbors = 471988
Ave neighs/atom = 230.463
Neighbor list builds = 1
Dangerous builds = 0

variable T_new equal 10000*${dt}+${T_total}
variable T_new equal 10000*8.99871248655506e-06+${T_total}
variable T_new equal 10000*8.99871248655506e-06+0.3627350860038
variable T_total equal ${T_new}
variable T_total equal 0.452722210869351
print "Total time: ${T_total}"
Total time: 0.452722210869351

## check if 1 ps has passed ##
if "${T_total} > 1.0" then "jump SELF loop_end"
jump SELF time_loop

variable dtold equal ${dt}
variable dtold equal 8.99871248655506e-06
variable velo equal c_maxv
variable tau equal 1.0/${velo}
variable tau equal 1.0/23.2056864061586
variable dt equal ${maxA}*${tau}
variable dt equal 0.001*${tau}
variable dt equal 0.001*0.0430928860494559
variable dtratio equal ${dtold}/${dt}
variable dtratio equal 8.99871248655506e-06/${dt}
variable dtratio equal 8.99871248655506e-06/4.30928860494559e-05

if "${dtratio} > 1.2" then "variable dt equal ${dtold}*0.8"
if "${dtratio} < 0.8" then "variable dt equal ${dtold}*1.2"
variable dt equal ${dtold}*1.2
variable dt equal 8.99871248655506e-06*1.2

if "${dt} > 0.001" then "variable dt equal 0.001"

print "Timestep: ${dt}"
Timestep: 1.07984549838661e-05
timestep ${dt}
timestep 1.07984549838661e-05

## run until atom has traveled 1 A ##
run 10000
Per MPI rank memory allocation (min/avg/max) = 6.748 | 6.748 | 6.748 Mbytes
Step Time Temp Press PotEng KinEng TotEng c_maxv 
  100000   0.45272221    1482.1524    79692.668   -8641.0375    392.17089   -8248.8667    23.205686 
  101000   0.46352067    1474.4208    78883.463   -8639.2895    390.12514   -8249.1644    26.469969 
  102000   0.47431912    1481.6701    78954.247   -8640.6709    392.04328   -8248.6276    29.836862 
  103000   0.48511758    1477.8347    78483.582   -8640.0133    391.02843   -8248.9849    29.754546 
  104000   0.49591603    1454.0098    78961.314   -8632.9792    384.72447   -8248.2547    24.361218 
  105000   0.50671449    1442.0099    78299.078    -8629.139    381.54935   -8247.5897    20.843992 
  106000   0.51751294    1431.7498    78172.173   -8625.9698    378.83457   -8247.1352    23.469746 
  107000    0.5283114    1419.7417    77992.342   -8623.2632    375.65728   -8247.6059    24.541693 
  108000   0.53910985    1399.9595    78003.416   -8617.7818    370.42301   -8247.3588    24.141342 
  109000   0.54990831    1382.6522     77695.87   -8612.6586    365.84359    -8246.815    22.934418 
  110000   0.56070676     1393.501     76097.22   -8615.4789    368.71411   -8246.7648    22.059936 
Loop time of 292.748 on 1 procs for 10000 steps with 2048 atoms

Performance: 0.032 ns/day, 753.059 hours/ns, 34.159 timesteps/s
100.0% CPU use with 1 MPI tasks x no OpenMP threads

MPI task timing breakdown:
Section |  min time  |  avg time  |  max time  |%varavg| %total
---------------------------------------------------------------
Pair    | 88.842     | 88.842     | 88.842     |   0.0 | 30.35
Neigh   | 0.02996    | 0.02996    | 0.02996    |   0.0 |  0.01
Comm    | 0.65747    | 0.65747    | 0.65747    |   0.0 |  0.22
Output  | 0.0012522  | 0.0012522  | 0.0012522  |   0.0 |  0.00
Modify  | 203.07     | 203.07     | 203.07     |   0.0 | 69.37
Other   |            | 0.1438     |            |       |  0.05

Nlocal:    2048 ave 2048 max 2048 min
Histogram: 1 0 0 0 0 0 0 0 0 0
Nghost:    5894 ave 5894 max 5894 min
Histogram: 1 0 0 0 0 0 0 0 0 0
Neighs:    236356 ave 236356 max 236356 min
Histogram: 1 0 0 0 0 0 0 0 0 0
FullNghs:  472712 ave 472712 max 472712 min
Histogram: 1 0 0 0 0 0 0 0 0 0

Total # of neighbors = 472712
Ave neighs/atom = 230.816
Neighbor list builds = 2
Dangerous builds = 0

variable T_new equal 10000*${dt}+${T_total}
variable T_new equal 10000*1.07984549838661e-05+${T_total}
variable T_new equal 10000*1.07984549838661e-05+0.452722210869351
variable T_total equal ${T_new}
variable T_total equal 0.560706760708012
print "Total time: ${T_total}"
Total time: 0.560706760708012

## check if 1 ps has passed ##
if "${T_total} > 1.0" then "jump SELF loop_end"
jump SELF time_loop

variable dtold equal ${dt}
variable dtold equal 1.07984549838661e-05
variable velo equal c_maxv
variable tau equal 1.0/${velo}
variable tau equal 1.0/22.0599359151031
variable dt equal ${maxA}*${tau}
variable dt equal 0.001*${tau}
variable dt equal 0.001*0.045331047372416
variable dtratio equal ${dtold}/${dt}
variable dtratio equal 1.07984549838661e-05/${dt}
variable dtratio equal 1.07984549838661e-05/4.5331047372416e-05

if "${dtratio} > 1.2" then "variable dt equal ${dtold}*0.8"
if "${dtratio} < 0.8" then "variable dt equal ${dtold}*1.2"
variable dt equal ${dtold}*1.2
variable dt equal 1.07984549838661e-05*1.2

if "${dt} > 0.001" then "variable dt equal 0.001"

print "Timestep: ${dt}"
Timestep: 1.29581459806393e-05
timestep ${dt}
timestep 1.29581459806393e-05

## run until atom has traveled 1 A ##
run 10000
Per MPI rank memory allocation (min/avg/max) = 6.748 | 6.748 | 6.748 Mbytes
Step Time Temp Press PotEng KinEng TotEng c_maxv 
  110000   0.56070676     1393.501     76097.22   -8615.4789    368.71411   -8246.7648    22.059936 
  111000   0.57366491    1428.7609    74607.363   -8624.2785    378.04374   -8246.2348    22.704244 
  112000   0.58662305    1435.1861    74799.586   -8626.2897    379.74381   -8246.5459    22.147611 
  113000    0.5995812    1437.7743    75033.623   -8625.7105    380.42862   -8245.2819    23.178061 
  114000   0.61253934    1450.6469    75369.207   -8628.7823    383.83468   -8244.9476    23.656424 
  115000   0.62549749    1479.4343    74853.471   -8636.0179    391.45167   -8244.5662    23.411395 
  116000   0.63845564    1505.9173    74315.031    -8642.725    398.45896    -8244.266    22.781377 
  117000   0.65141378     1492.836     75132.49   -8638.6035    394.99771   -8243.6058    24.025628 
  118000   0.66437193    1489.8135     75121.17   -8636.7971    394.19797   -8242.5991    20.699797 
  119000   0.67733007    1527.9281    73385.856   -8646.6402    404.28292   -8242.3573    24.824941 
  120000   0.69028822    1568.0536    73209.173    -8656.723    414.89996    -8241.823    25.258152 
Loop time of 289.476 on 1 procs for 10000 steps with 2048 atoms

Performance: 0.039 ns/day, 620.537 hours/ns, 34.545 timesteps/s
99.9% CPU use with 1 MPI tasks x no OpenMP threads

MPI task timing breakdown:
Section |  min time  |  avg time  |  max time  |%varavg| %total
---------------------------------------------------------------
Pair    | 87.502     | 87.502     | 87.502     |   0.0 | 30.23
Neigh   | 0.028463   | 0.028463   | 0.028463   |   0.0 |  0.01
Comm    | 0.64666    | 0.64666    | 0.64666    |   0.0 |  0.22
Output  | 0.0011668  | 0.0011668  | 0.0011668  |   0.0 |  0.00
Modify  | 201.16     | 201.16     | 201.16     |   0.0 | 69.49
Other   |            | 0.1422     |            |       |  0.05

Nlocal:    2048 ave 2048 max 2048 min
Histogram: 1 0 0 0 0 0 0 0 0 0
Nghost:    5925 ave 5925 max 5925 min
Histogram: 1 0 0 0 0 0 0 0 0 0
Neighs:    235270 ave 235270 max 235270 min
Histogram: 1 0 0 0 0 0 0 0 0 0
FullNghs:  470540 ave 470540 max 470540 min
Histogram: 1 0 0 0 0 0 0 0 0 0

Total # of neighbors = 470540
Ave neighs/atom = 229.756
Neighbor list builds = 2
Dangerous builds = 0

variable T_new equal 10000*${dt}+${T_total}
variable T_new equal 10000*1.29581459806393e-05+${T_total}
variable T_new equal 10000*1.29581459806393e-05+0.560706760708012
variable T_total equal ${T_new}
variable T_total equal 0.690288220514405
print "Total time: ${T_total}"
Total time: 0.690288220514405

## check if 1 ps has passed ##
if "${T_total} > 1.0" then "jump SELF loop_end"
jump SELF time_loop

variable dtold equal ${dt}
variable dtold equal 1.29581459806393e-05
variable velo equal c_maxv
variable tau equal 1.0/${velo}
variable tau equal 1.0/25.2581517383129
variable dt equal ${maxA}*${tau}
variable dt equal 0.001*${tau}
variable dt equal 0.001*0.0395911787355029
variable dtratio equal ${dtold}/${dt}
variable dtratio equal 1.29581459806393e-05/${dt}
variable dtratio equal 1.29581459806393e-05/3.95911787355029e-05

if "${dtratio} > 1.2" then "variable dt equal ${dtold}*0.8"
if "${dtratio} < 0.8" then "variable dt equal ${dtold}*1.2"
variable dt equal ${dtold}*1.2
variable dt equal 1.29581459806393e-05*1.2

if "${dt} > 0.001" then "variable dt equal 0.001"

print "Timestep: ${dt}"
Timestep: 1.55497751767672e-05
timestep ${dt}
timestep 1.55497751767672e-05

## run until atom has traveled 1 A ##
run 10000
Per MPI rank memory allocation (min/avg/max) = 6.748 | 6.748 | 6.748 Mbytes
Step Time Temp Press PotEng KinEng TotEng c_maxv 
  120000   0.69028822    1568.0536    73209.173    -8656.723    414.89996    -8241.823    25.258152 
  121000     0.705838    1550.6468    74194.765   -8651.6396    410.29419   -8241.3455    23.257732 
  122000   0.72138777    1517.5043    75844.928   -8642.7912    401.52484   -8241.2663     22.28695 
  123000   0.73693755     1529.438    76365.089   -8646.4753    404.68243   -8241.7929     25.09481 
  124000   0.75248732       1562.8    76186.317   -8654.9647    413.50986   -8241.4548    24.164493 
  125000    0.7680371    1543.4455     77672.89    -8649.367    408.38876   -8240.9783    20.526343 
  126000   0.78358687    1473.3763     79823.73   -8630.3443    389.84875   -8240.4955    19.552323 
  127000   0.79913665    1458.1493     80599.56   -8625.7771    385.81976   -8239.9574     17.87526 
  128000   0.81468642    1482.5208    80806.179   -8632.4362    392.26835   -8240.1678    20.108742 
  129000    0.8302362    1477.4892      81923.2    -8629.616    390.93703    -8238.679    20.267146 
  130000   0.84578597    1461.3103     82235.35   -8625.7019    386.65617   -8239.0457    19.219742 
Loop time of 298.949 on 1 procs for 10000 steps with 2048 atoms

Performance: 0.045 ns/day, 534.036 hours/ns, 33.451 timesteps/s
99.7% CPU use with 1 MPI tasks x no OpenMP threads

MPI task timing breakdown:
Section |  min time  |  avg time  |  max time  |%varavg| %total
---------------------------------------------------------------
Pair    | 90.524     | 90.524     | 90.524     |   0.0 | 30.28
Neigh   | 0.044564   | 0.044564   | 0.044564   |   0.0 |  0.01
Comm    | 0.68591    | 0.68591    | 0.68591    |   0.0 |  0.23
Output  | 0.0011852  | 0.0011852  | 0.0011852  |   0.0 |  0.00
Modify  | 207.55     | 207.55     | 207.55     |   0.0 | 69.43
Other   |            | 0.1469     |            |       |  0.05

Nlocal:    2048 ave 2048 max 2048 min
Histogram: 1 0 0 0 0 0 0 0 0 0
Nghost:    6094 ave 6094 max 6094 min
Histogram: 1 0 0 0 0 0 0 0 0 0
Neighs:    236641 ave 236641 max 236641 min
Histogram: 1 0 0 0 0 0 0 0 0 0
FullNghs:  473282 ave 473282 max 473282 min
Histogram: 1 0 0 0 0 0 0 0 0 0

Total # of neighbors = 473282
Ave neighs/atom = 231.095
Neighbor list builds = 3
Dangerous builds = 0

variable T_new equal 10000*${dt}+${T_total}
variable T_new equal 10000*1.55497751767672e-05+${T_total}
variable T_new equal 10000*1.55497751767672e-05+0.690288220514405
variable T_total equal ${T_new}
variable T_total equal 0.845785972282077
print "Total time: ${T_total}"
Total time: 0.845785972282077

## check if 1 ps has passed ##
if "${T_total} > 1.0" then "jump SELF loop_end"
jump SELF time_loop

variable dtold equal ${dt}
variable dtold equal 1.55497751767672e-05
variable velo equal c_maxv
variable tau equal 1.0/${velo}
variable tau equal 1.0/19.2197415766228
variable dt equal ${maxA}*${tau}
variable dt equal 0.001*${tau}
variable dt equal 0.001*0.0520298358858431
variable dtratio equal ${dtold}/${dt}
variable dtratio equal 1.55497751767672e-05/${dt}
variable dtratio equal 1.55497751767672e-05/5.20298358858431e-05

if "${dtratio} > 1.2" then "variable dt equal ${dtold}*0.8"
if "${dtratio} < 0.8" then "variable dt equal ${dtold}*1.2"
variable dt equal ${dtold}*1.2
variable dt equal 1.55497751767672e-05*1.2

if "${dt} > 0.001" then "variable dt equal 0.001"

print "Timestep: ${dt}"
Timestep: 1.86597302121206e-05
timestep ${dt}
timestep 1.86597302121206e-05

## run until atom has traveled 1 A ##
run 10000
Per MPI rank memory allocation (min/avg/max) = 6.748 | 6.748 | 6.748 Mbytes
Step Time Temp Press PotEng KinEng TotEng c_maxv 
  130000   0.84578597    1461.3103     82235.35   -8625.7019    386.65617   -8239.0457    19.219742 
  131000    0.8644457    1440.8709    82672.536   -8619.8757    381.24798   -8238.6277    21.254002 
  132000   0.88310543    1407.1476    83823.607   -8611.3246    372.32496   -8238.9997    21.589093 
  133000   0.90176516    1409.1656    83758.949   -8611.7429     372.8589    -8238.884    22.512797 
  134000   0.92042489    1458.9502    83302.341   -8622.7662    386.03168   -8236.7345    19.485567 
  135000   0.93908462    1497.9226    82174.438    -8631.956     396.3436   -8235.6124    20.471885 
  136000   0.95774435    1473.1169    81621.888   -8626.0696    389.78012   -8236.2895    18.227249 
  137000   0.97640408    1538.1687    79909.435   -8643.0903    406.99253   -8236.0978    20.641156 
  138000   0.99506381    1569.7026    77539.208   -8651.2158    415.33627   -8235.8795    21.430017 
  139000    1.0137235    1558.6864     75805.89   -8647.2604    412.42143   -8234.8389    22.311992 
  140000    1.0323833    1551.9582    75537.487   -8644.6599    410.64119   -8234.0188    24.817465 
Loop time of 301.527 on 1 procs for 10000 steps with 2048 atoms

Performance: 0.053 ns/day, 448.867 hours/ns, 33.165 timesteps/s
100.0% CPU use with 1 MPI tasks x no OpenMP threads

MPI task timing breakdown:
Section |  min time  |  avg time  |  max time  |%varavg| %total
---------------------------------------------------------------
Pair    | 91.742     | 91.742     | 91.742     |   0.0 | 30.43
Neigh   | 0.048359   | 0.048359   | 0.048359   |   0.0 |  0.02
Comm    | 0.70104    | 0.70104    | 0.70104    |   0.0 |  0.23
Output  | 0.0011566  | 0.0011566  | 0.0011566  |   0.0 |  0.00
Modify  | 208.89     | 208.89     | 208.89     |   0.0 | 69.28
Other   |            | 0.1472     |            |       |  0.05

Nlocal:    2048 ave 2048 max 2048 min
Histogram: 1 0 0 0 0 0 0 0 0 0
Nghost:    6010 ave 6010 max 6010 min
Histogram: 1 0 0 0 0 0 0 0 0 0
Neighs:    235065 ave 235065 max 235065 min
Histogram: 1 0 0 0 0 0 0 0 0 0
FullNghs:  470130 ave 470130 max 470130 min
Histogram: 1 0 0 0 0 0 0 0 0 0

Total # of neighbors = 470130
Ave neighs/atom = 229.556
Neighbor list builds = 3
Dangerous builds = 0

variable T_new equal 10000*${dt}+${T_total}
variable T_new equal 10000*1.86597302121206e-05+${T_total}
variable T_new equal 10000*1.86597302121206e-05+0.845785972282077
variable T_total equal ${T_new}
variable T_total equal 1.03238327440328
print "Total time: ${T_total}"
Total time: 1.03238327440328

## check if 1 ps has passed ##
if "${T_total} > 1.0" then "jump SELF loop_end"
jump SELF loop_end
run 0
Per MPI rank memory allocation (min/avg/max) = 6.748 | 6.748 | 6.748 Mbytes
Step Time Temp Press PotEng KinEng TotEng c_maxv 
  140000    1.0323833    1551.9582    75537.487   -8644.6599    410.64119   -8234.0188    24.817465 
Loop time of 1.19209e-06 on 1 procs for 0 steps with 2048 atoms

167.8% CPU use with 1 MPI tasks x no OpenMP threads

MPI task timing breakdown:
Section |  min time  |  avg time  |  max time  |%varavg| %total
---------------------------------------------------------------
Pair    | 0          | 0          | 0          |   0.0 |  0.00
Neigh   | 0          | 0          | 0          |   0.0 |  0.00
Comm    | 0          | 0          | 0          |   0.0 |  0.00
Output  | 0          | 0          | 0          |   0.0 |  0.00
Modify  | 0          | 0          | 0          |   0.0 |  0.00
Other   |            | 1.192e-06  |            |       |100.00

Nlocal:    2048 ave 2048 max 2048 min
Histogram: 1 0 0 0 0 0 0 0 0 0
Nghost:    6001 ave 6001 max 6001 min
Histogram: 1 0 0 0 0 0 0 0 0 0
Neighs:    234940 ave 234940 max 234940 min
Histogram: 1 0 0 0 0 0 0 0 0 0
FullNghs:  469880 ave 469880 max 469880 min
Histogram: 1 0 0 0 0 0 0 0 0 0

Total # of neighbors = 469880
Ave neighs/atom = 229.434
Neighbor list builds = 0
Dangerous builds = 0


Total wall time: 1:07:59
