# A comment
#
#
7 8 9 1
0.000000e+00 2.816000e+01
0.000000e+00 2.816000e+01
0.000000e+00 2.816000e+01
0 0 0 1.853052e+03 0.000000e+00 1.000000e+00 3.500000e-06 1.248000e-01 1
1 0 0 1.853930e+03 0.000000e+00 1.000000e+00 3.500000e-06 1.248000e-01 1
2 0 0 1.842787e+03 0.000000e+00 1.000000e+00 3.500000e-06 1.248000e-01 1
3 0 0 1.838932e+03 0.000000e+00 1.000000e+00 3.500000e-06 1.248000e-01 1
4 0 0 1.838920e+03 0.000000e+00 1.000000e+00 3.500000e-06 1.248000e-01 1
5 0 0 1.848394e+03 0.000000e+00 1.000000e+00 3.500000e-06 1.248000e-01 1
6 0 0 1.851706e+03 0.000000e+00 1.000000e+00 3.500000e-06 1.248000e-01 1
0 1 0 1.845887e+03 0.000000e+00 1.000000e+00 3.500000e-06 1.248000e-01 1
1 1 0 1.845245e+03 0.000000e+00 1.000000e+00 3.500000e-06 1.248000e-01 1
2 1 0 1.834696e+03 0.000000e+00 1.000000e+00 3.500000e-06 1.248000e-01 1
3 1 0 1.818572e+03 0.000000e+00 1.000000e+00 3.500000e-06 1.248000e-01 1
4 1 0 1.839946e+03 0.000000e+00 1.000000e+00 3.500000e-06 1.248000e-01 1
5 1 0 1.847727e+03 0.000000e+00 1.000000e+00 3.500000e-06 1.248000e-01 1
6 1 0 1.852654e+03 0.000000e+00 1.000000e+00 3.500000e-06 1.248000e-01 1
0 2 0 1.846164e+03 0.000000e+00 1.000000e+00 3.500000e-06 1.248000e-01 1
1 2 0 1.823302e+03 0.000000e+00 1.000000e+00 3.500000e-06 1.248000e-01 1
2 2 0 1.843104e+03 0.000000e+00 1.000000e+00 3.500000e-06 1.248000e-01 1
3 2 0 1.844595e+03 0.000000e+00 1.000000e+00 3.500000e-06 1.248000e-01 1
4 2 0 1.845743e+03 0.000000e+00 1.000000e+00 3.500000e-06 1.248000e-01 1
5 2 0 1.846409e+03 0.000000e+00 1.000000e+00 3.500000e-06 1.248000e-01 1
6 2 0 1.852494e+03 0.000000e+00 1.000000e+00 3.500000e-06 1.248000e-01 1
0 3 0 1.845951e+03 0.000000e+00 1.000000e+00 3.500000e-06 1.248000e-01 1
1 3 0 1.844898e+03 0.000000e+00 1.000000e+00 3.500000e-06 1.248000e-01 1
2 3 0 1.841223e+03 0.000000e+00 1.000000e+00 3.500000e-06 1.248000e-01 1
3 3 0 1.855093e+03 0.000000e+00 1.000000e+00 3.500000e-06 1.248000e-01 1
4 3 0 1.833529e+03 0.000000e+00 1.000000e+00 3.500000e-06 1.248000e-01 1
5 3 0 1.847180e+03 0.000000e+00 1.000000e+00 3.500000e-06 1.248000e-01 1
6 3 0 1.851405e+03 0.000000e+00 1.000000e+00 3.500000e-06 1.248000e-01 1
0 4 0 1.855054e+03 0.000000e+00 1.000000e+00 3.500000e-06 1.248000e-01 1
1 4 0 1.851978e+03 0.000000e+00 1.000000e+00 3.500000e-06 1.248000e-01 1
2 4 0 1.832236e+03 0.000000e+00 1.000000e+00 3.500000e-06 1.248000e-01 1
3 4 0 1.833685e+03 0.000000e+00 1.000000e+00 3.500000e-06 1.248000e-01 1
4 4 0 1.835465e+03 0.000000e+00 1.000000e+00 3.500000e-06 1.248000e-01 1
5 4 0 1.839016e+03 0.000000e+00 1.000000e+00 3.500000e-06 1.248000e-01 1
6 4 0 1.849004e+03 0.000000e+00 1.000000e+00 3.500000e-06 1.248000e-01 1
0 5 0 1.853761e+03 0.000000e+00 1.000000e+00 3.500000e-06 1.248000e-01 1
1 5 0 1.848691e+03 0.000000e+00 1.000000e+00 3.500000e-06 1.248000e-01 1
2 5 0 1.837328e+03 0.000000e+00 1.000000e+00 3.500000e-06 1.248000e-01 1
3 5 0 1.836752e+03 0.000000e+00 1.000000e+00 3.500000e-06 1.248000e-01 1
4 5 0 1.831677e+03 0.000000e+00 1.000000e+00 3.500000e-06 1.248000e-01 1
5 5 0 1.833767e+03 0.000000e+00 1.000000e+00 3.500000e-06 1.248000e-01 1
6 5 0 1.838862e+03 0.000000e+00 1.000000e+00 3.500000e-06 1.248000e-01 1
0 6 0 1.856995e+03 0.000000e+00 1.000000e+00 3.500000e-06 1.248000e-01 1
1 6 0 1.842033e+03 0.000000e+00 1.000000e+00 3.500000e-06 1.248000e-01 1
2 6 0 1.822460e+03 0.000000e+00 1.000000e+00 3.500000e-06 1.248000e-01 1
3 6 0 1.838505e+03 0.000000e+00 1.000000e+00 3.500000e-06 1.248000e-01 1
4 6 0 1.839219e+03 0.000000e+00 1.000000e+00 3.500000e-06 1.248000e-01 1
5 6 0 1.835937e+03 0.000000e+00 1.000000e+00 3.500000e-06 1.248000e-01 1
6 6 0 1.835150e+03 0.000000e+00 1.000000e+00 3.500000e-06 1.248000e-01 1
0 7 0 1.850492e+03 0.000000e+00 1.000000e+00 3.500000e-06 1.248000e-01 1
1 7 0 1.837380e+03 0.000000e+00 1.000000e+00 3.500000e-06 1.248000e-01 1
2 7 0 1.832769e+03 0.000000e+00 1.000000e+00 3.500000e-06 1.248000e-01 1
3 7 0 1.855239e+03 0.000000e+00 1.000000e+00 3.500000e-06 1.248000e-01 1
4 7 0 1.833057e+03 0.000000e+00 1.000000e+00 3.500000e-06 1.248000e-01 1
5 7 0 1.841930e+03 0.000000e+00 1.000000e+00 3.500000e-06 1.248000e-01 1
6 7 0 1.845464e+03 0.000000e+00 1.000000e+00 3.500000e-06 1.248000e-01 1
0 0 1 1.864951e+03 0.000000e+00 1.000000e+00 3.500000e-06 1.248000e-01 1
1 0 1 1.869127e+03 0.000000e+00 1.000000e+00 3.500000e-06 1.248000e-01 1
2 0 1 1.837810e+03 0.000000e+00 1.000000e+00 3.500000e-06 1.248000e-01 1
3 0 1 1.844310e+03 0.000000e+00 1.000000e+00 3.500000e-06 1.248000e-01 1
4 0 1 1.836725e+03 0.000000e+00 1.000000e+00 3.500000e-06 1.248000e-01 1
5 0 1 1.852071e+03 0.000000e+00 1.000000e+00 3.500000e-06 1.248000e-01 1
6 0 1 1.850365e+03 0.000000e+00 1.000000e+00 3.500000e-06 1.248000e-01 1
0 1 1 1.875774e+03 0.000000e+00 1.000000e+00 3.500000e-06 1.248000e-01 1
1 1 1 1.849705e+03 0.000000e+00 1.000000e+00 3.500000e-06 1.248000e-01 1
2 1 1 1.842428e+03 0.000000e+00 1.000000e+00 3.500000e-06 1.248000e-01 1
3 1 1 1.820615e+03 0.000000e+00 1.000000e+00 3.500000e-06 1.248000e-01 1
4 1 1 1.853946e+03 0.000000e+00 1.000000e+00 3.500000e-06 1.248000e-01 1
5 1 1 1.842079e+03 0.000000e+00 1.000000e+00 3.500000e-06 1.248000e-01 1
6 1 1 1.850622e+03 0.000000e+00 1.000000e+00 3.500000e-06 1.248000e-01 1
0 2 1 1.855619e+03 0.000000e+00 1.000000e+00 3.500000e-06 1.248000e-01 1
1 2 1 1.835499e+03 0.000000e+00 1.000000e+00 3.500000e-06 1.248000e-01 1
2 2 1 1.846408e+03 0.000000e+00 1.000000e+00 3.500000e-06 1.248000e-01 1
3 2 1 1.838896e+03 0.000000e+00 1.000000e+00 3.500000e-06 1.248000e-01 1
4 2 1 1.836738e+03 0.000000e+00 1.000000e+00 3.500000e-06 1.248000e-01 1
5 2 1 1.843473e+03 0.000000e+00 1.000000e+00 3.500000e-06 1.248000e-01 1
6 2 1 1.851925e+03 0.000000e+00 1.000000e+00 3.500000e-06 1.248000e-01 1
0 3 1 1.851361e+03 0.000000e+00 1.000000e+00 3.500000e-06 1.248000e-01 1
1 3 1 1.836752e+03 0.000000e+00 1.000000e+00 3.500000e-06 1.248000e-01 1
2 3 1 1.823950e+03 0.000000e+00 1.000000e+00 3.500000e-06 1.248000e-01 1
3 3 1 1.842741e+03 0.000000e+00 1.000000e+00 3.500000e-06 1.248000e-01 1
4 3 1 1.839117e+03 0.000000e+00 1.000000e+00 3.500000e-06 1.248000e-01 1
5 3 1 1.845740e+03 0.000000e+00 1.000000e+00 3.500000e-06 1.248000e-01 1
6 3 1 1.847551e+03 0.000000e+00 1.000000e+00 3.500000e-06 1.248000e-01 1
0 4 1 1.841174e+03 0.000000e+00 1.000000e+00 3.500000e-06 1.248000e-01 1
1 4 1 1.835523e+03 0.000000e+00 1.000000e+00 3.500000e-06 1.248000e-01 1
2 4 1 1.835192e+03 0.000000e+00 1.000000e+00 3.500000e-06 1.248000e-01 1
3 4 1 1.829801e+03 0.000000e+00 1.000000e+00 3.500000e-06 1.248000e-01 1
4 4 1 1.836495e+03 0.000000e+00 1.000000e+00 3.500000e-06 1.248000e-01 1
5 4 1 1.841750e+03 0.000000e+00 1.000000e+00 3.500000e-06 1.248000e-01 1
6 4 1 1.840772e+03 0.000000e+00 1.000000e+00 3.500000e-06 1.248000e-01 1
0 5 1 1.849931e+03 0.000000e+00 1.000000e+00 3.500000e-06 1.248000e-01 1
1 5 1 1.846347e+03 0.000000e+00 1.000000e+00 3.500000e-06 1.248000e-01 1
2 5 1 1.843142e+03 0.000000e+00 1.000000e+00 3.500000e-06 1.248000e-01 1
3 5 1 1.834251e+03 0.000000e+00 1.000000e+00 3.500000e-06 1.248000e-01 1
4 5 1 1.819659e+03 0.000000e+00 1.000000e+00 3.500000e-06 1.248000e-01 1
5 5 1 1.840771e+03 0.000000e+00 1.000000e+00 3.500000e-06 1.248000e-01 1
6 5 1 1.850428e+03 0.000000e+00 1.000000e+00 3.500000e-06 1.248000e-01 1
0 6 1 1.846788e+03 0.000000e+00 1.000000e+00 3.500000e-06 1.248000e-01 1
1 6 1 1.853699e+03 0.000000e+00 1.000000e+00 3.500000e-06 1.248000e-01 1
2 6 1 1.829819e+03 0.000000e+00 1.000000e+00 3.500000e-06 1.248000e-01 1
3 6 1 1.848809e+03 0.000000e+00 1.000000e+00 3.500000e-06 1.248000e-01 1
4 6 1 1.838039e+03 0.000000e+00 1.000000e+00 3.500000e-06 1.248000e-01 1
5 6 1 1.837812e+03 0.000000e+00 1.000000e+00 3.500000e-06 1.248000e-01 1
6 6 1 1.848906e+03 0.000000e+00 1.000000e+00 3.500000e-06 1.248000e-01 1
0 7 1 1.853047e+03 0.000000e+00 1.000000e+00 3.500000e-06 1.248000e-01 1
1 7 1 1.853941e+03 0.000000e+00 1.000000e+00 3.500000e-06 1.248000e-01 1
2 7 1 1.844069e+03 0.000000e+00 1.000000e+00 3.500000e-06 1.248000e-01 1
3 7 1 1.839438e+03 0.000000e+00 1.000000e+00 3.500000e-06 1.248000e-01 1
4 7 1 1.839236e+03 0.000000e+00 1.000000e+00 3.500000e-06 1.248000e-01 1
5 7 1 1.839677e+03 0.000000e+00 1.000000e+00 3.500000e-06 1.248000e-01 1
6 7 1 1.844131e+03 0.000000e+00 1.000000e+00 3.500000e-06 1.248000e-01 1
0 0 2 1.862174e+03 0.000000e+00 1.000000e+00 3.500000e-06 1.248000e-01 1
1 0 2 1.871986e+03 0.000000e+00 1.000000e+00 3.500000e-06 1.248000e-01 1
2 0 2 1.841858e+03 0.000000e+00 1.000000e+00 3.500000e-06 1.248000e-01 1
3 0 2 1.862419e+03 0.000000e+00 1.000000e+00 3.500000e-06 1.248000e-01 1
4 0 2 1.844325e+03 0.000000e+00 1.000000e+00 3.500000e-06 1.248000e-01 1
5 0 2 1.841086e+03 0.000000e+00 1.000000e+00 3.500000e-06 1.248000e-01 1
6 0 2 1.855617e+03 0.000000e+00 1.000000e+00 3.500000e-06 1.248000e-01 1
0 1 2 1.881772e+03 0.000000e+00 1.000000e+00 3.500000e-06 1.248000e-01 1
1 1 2 1.853844e+03 0.000000e+00 1.000000e+00 3.500000e-06 1.248000e-01 1
2 1 2 1.865547e+03 0.000000e+00 1.000000e+00 3.500000e-06 1.248000e-01 1
3 1 2 1.841937e+03 0.000000e+00 1.000000e+00 3.500000e-06 1.248000e-01 1
4 1 2 1.827205e+03 0.000000e+00 1.000000e+00 3.500000e-06 1.248000e-01 1
5 1 2 1.822106e+03 0.000000e+00 1.000000e+00 3.500000e-06 1.248000e-01 1
6 1 2 1.856774e+03 0.000000e+00 1.000000e+00 3.500000e-06 1.248000e-01 1
0 2 2 1.857816e+03 0.000000e+00 1.000000e+00 3.500000e-06 1.248000e-01 1
1 2 2 1.838006e+03 0.000000e+00 1.000000e+00 3.500000e-06 1.248000e-01 1
2 2 2 1.822044e+03 0.000000e+00 1.000000e+00 3.500000e-06 1.248000e-01 1
3 2 2 1.811883e+03 0.000000e+00 1.000000e+00 3.500000e-06 1.248000e-01 1
4 2 2 1.821380e+03 0.000000e+00 1.000000e+00 3.500000e-06 1.248000e-01 1
5 2 2 1.832629e+03 0.000000e+00 1.000000e+00 3.500000e-06 1.248000e-01 1
6 2 2 1.847875e+03 0.000000e+00 1.000000e+00 3.500000e-06 1.248000e-01 1
0 3 2 1.843425e+03 0.000000e+00 1.000000e+00 3.500000e-06 1.248000e-01 1
1 3 2 1.819471e+03 0.000000e+00 1.000000e+00 3.500000e-06 1.248000e-01 1
2 3 2 1.788545e+03 0.000000e+00 1.000000e+00 3.500000e-06 1.248000e-01 1
3 3 2 1.809863e+03 0.000000e+00 1.000000e+00 3.500000e-06 1.248000e-01 1
4 3 2 1.810317e+03 0.000000e+00 1.000000e+00 3.500000e-06 1.248000e-01 1
5 3 2 1.840659e+03 0.000000e+00 1.000000e+00 3.500000e-06 1.248000e-01 1
6 3 2 1.872708e+03 0.000000e+00 1.000000e+00 3.500000e-06 1.248000e-01 1
0 4 2 1.849749e+03 0.000000e+00 1.000000e+00 3.500000e-06 1.248000e-01 1
1 4 2 1.819053e+03 0.000000e+00 1.000000e+00 3.500000e-06 1.248000e-01 1
2 4 2 1.827167e+03 0.000000e+00 1.000000e+00 3.500000e-06 1.248000e-01 1
3 4 2 1.807445e+03 0.000000e+00 1.000000e+00 3.500000e-06 1.248000e-01 1
4 4 2 1.843538e+03 0.000000e+00 1.000000e+00 3.500000e-06 1.248000e-01 1
5 4 2 1.838683e+03 0.000000e+00 1.000000e+00 3.500000e-06 1.248000e-01 1
6 4 2 1.836403e+03 0.000000e+00 1.000000e+00 3.500000e-06 1.248000e-01 1
0 5 2 1.822038e+03 0.000000e+00 1.000000e+00 3.500000e-06 1.248000e-01 1
1 5 2 1.847513e+03 0.000000e+00 1.000000e+00 3.500000e-06 1.248000e-01 1
2 5 2 1.853518e+03 0.000000e+00 1.000000e+00 3.500000e-06 1.248000e-01 1
3 5 2 1.862311e+03 0.000000e+00 1.000000e+00 3.500000e-06 1.248000e-01 1
4 5 2 1.863457e+03 0.000000e+00 1.000000e+00 3.500000e-06 1.248000e-01 1
5 5 2 1.853049e+03 0.000000e+00 1.000000e+00 3.500000e-06 1.248000e-01 1
6 5 2 1.821326e+03 0.000000e+00 1.000000e+00 3.500000e-06 1.248000e-01 1
0 6 2 1.845001e+03 0.000000e+00 1.000000e+00 3.500000e-06 1.248000e-01 1
1 6 2 1.858291e+03 0.000000e+00 1.000000e+00 3.500000e-06 1.248000e-01 1
2 6 2 1.850404e+03 0.000000e+00 1.000000e+00 3.500000e-06 1.248000e-01 1
3 6 2 1.859300e+03 0.000000e+00 1.000000e+00 3.500000e-06 1.248000e-01 1
4 6 2 1.854866e+03 0.000000e+00 1.000000e+00 3.500000e-06 1.248000e-01 1
5 6 2 1.851245e+03 0.000000e+00 1.000000e+00 3.500000e-06 1.248000e-01 1
6 6 2 1.845808e+03 0.000000e+00 1.000000e+00 3.500000e-06 1.248000e-01 1
0 7 2 1.868623e+03 0.000000e+00 1.000000e+00 3.500000e-06 1.248000e-01 1
1 7 2 1.871018e+03 0.000000e+00 1.000000e+00 3.500000e-06 1.248000e-01 1
2 7 2 1.846972e+03 0.000000e+00 1.000000e+00 3.500000e-06 1.248000e-01 1
3 7 2 1.820105e+03 0.000000e+00 1.000000e+00 3.500000e-06 1.248000e-01 1
4 7 2 1.853040e+03 0.000000e+00 1.000000e+00 3.500000e-06 1.248000e-01 1
5 7 2 1.847221e+03 0.000000e+00 1.000000e+00 3.500000e-06 1.248000e-01 1
6 7 2 1.842652e+03 0.000000e+00 1.000000e+00 3.500000e-06 1.248000e-01 1
0 0 3 1.886529e+03 0.000000e+00 1.000000e+00 3.500000e-06 1.248000e-01 1
1 0 3 1.838976e+03 0.000000e+00 1.000000e+00 3.500000e-06 1.248000e-01 1
2 0 3 1.852801e+03 0.000000e+00 1.000000e+00 3.500000e-06 1.248000e-01 1
3 0 3 1.809611e+03 0.000000e+00 1.000000e+00 3.500000e-06 1.248000e-01 1
4 0 3 1.807728e+03 0.000000e+00 1.000000e+00 3.500000e-06 1.248000e-01 1
5 0 3 1.838049e+03 0.000000e+00 1.000000e+00 3.500000e-06 1.248000e-01 1
6 0 3 1.870941e+03 0.000000e+00 1.000000e+00 3.500000e-06 1.248000e-01 1
0 1 3 1.853361e+03 0.000000e+00 1.000000e+00 3.500000e-06 1.248000e-01 1
1 1 3 1.811230e+03 0.000000e+00 1.000000e+00 3.500000e-06 1.248000e-01 1
2 1 3 1.829843e+03 0.000000e+00 1.000000e+00 3.500000e-06 1.248000e-01 1
3 1 3 1.825850e+03 0.000000e+00 1.000000e+00 3.500000e-06 1.248000e-01 1
4 1 3 1.803081e+03 0.000000e+00 1.000000e+00 3.500000e-06 1.248000e-01 1
5 1 3 1.834591e+03 0.000000e+00 1.000000e+00 3.500000e-06 1.248000e-01 1
6 1 3 1.858521e+03 0.000000e+00 1.000000e+00 3.500000e-06 1.248000e-01 1
0 2 3 1.812763e+03 0.000000e+00 1.000000e+00 3.500000e-06 1.248000e-01 1
1 2 3 1.829329e+03 0.000000e+00 1.000000e+00 3.500000e-06 1.248000e-01 1
2 2 3 1.823247e+03 0.000000e+00 1.000000e+00 3.500000e-06 1.248000e-01 1
3 2 3 1.827061e+03 0.000000e+00 1.000000e+00 3.500000e-06 1.248000e-01 1
4 2 3 1.822195e+03 0.000000e+00 1.000000e+00 3.500000e-06 1.248000e-01 1
5 2 3 1.823043e+03 0.000000e+00 1.000000e+00 3.500000e-06 1.248000e-01 1
6 2 3 1.867255e+03 0.000000e+00 1.000000e+00 3.500000e-06 1.248000e-01 1
0 3 3 1.815039e+03 0.000000e+00 1.000000e+00 3.500000e-06 1.248000e-01 1
1 3 3 1.846863e+03 0.000000e+00 1.000000e+00 3.500000e-06 1.248000e-01 1
2 3 3 1.836765e+03 0.000000e+00 1.000000e+00 3.500000e-06 1.248000e-01 1
3 3 3 1.850818e+03 0.000000e+00 1.000000e+00 3.500000e-06 1.248000e-01 1
4 3 3 1.864668e+03 0.000000e+00 1.000000e+00 3.500000e-06 1.248000e-01 1
5 3 3 1.845572e+03 0.000000e+00 1.000000e+00 3.500000e-06 1.248000e-01 1
6 3 3 1.836581e+03 0.000000e+00 1.000000e+00 3.500000e-06 1.248000e-01 1
0 4 3 1.819280e+03 0.000000e+00 1.000000e+00 3.500000e-06 1.248000e-01 1
1 4 3 1.844143e+03 0.000000e+00 1.000000e+00 3.500000e-06 1.248000e-01 1
2 4 3 1.857332e+03 0.000000e+00 1.000000e+00 3.500000e-06 1.248000e-01 1
3 4 3 1.855915e+03 0.000000e+00 1.000000e+00 3.500000e-06 1.248000e-01 1
4 4 3 1.864928e+03 0.000000e+00 1.000000e+00 3.500000e-06 1.248000e-01 1
5 4 3 1.835578e+03 0.000000e+00 1.000000e+00 3.500000e-06 1.248000e-01 1
6 4 3 1.834491e+03 0.000000e+00 1.000000e+00 3.500000e-06 1.248000e-01 1
0 5 3 1.845267e+03 0.000000e+00 1.000000e+00 3.500000e-06 1.248000e-01 1
1 5 3 1.824541e+03 0.000000e+00 1.000000e+00 3.500000e-06 1.248000e-01 1
2 5 3 1.843979e+03 0.000000e+00 1.000000e+00 3.500000e-06 1.248000e-01 1
3 5 3 1.871027e+03 0.000000e+00 1.000000e+00 3.500000e-06 1.248000e-01 1
4 5 3 1.854952e+03 0.000000e+00 1.000000e+00 3.500000e-06 1.248000e-01 1
5 5 3 1.863614e+03 0.000000e+00 1.000000e+00 3.500000e-06 1.248000e-01 1
6 5 3 1.825474e+03 0.000000e+00 1.000000e+00 3.500000e-06 1.248000e-01 1
0 6 3 1.843991e+03 0.000000e+00 1.000000e+00 3.500000e-06 1.248000e-01 1
1 6 3 1.852871e+03 0.000000e+00 1.000000e+00 3.500000e-06 1.248000e-01 1
2 6 3 1.840148e+03 0.000000e+00 1.000000e+00 3.500000e-06 1.248000e-01 1
3 6 3 1.828517e+03 0.000000e+00 1.000000e+00 3.500000e-06 1.248000e-01 1
4 6 3 1.804583e+03 0.000000e+00 1.000000e+00 3.500000e-06 1.248000e-01 1
5 6 3 1.860642e+03 0.000000e+00 1.000000e+00 3.500000e-06 1.248000e-01 1
6 6 3 1.871170e+03 0.000000e+00 1.000000e+00 3.500000e-06 1.248000e-01 1
0 7 3 1.864593e+03 0.000000e+00 1.000000e+00 3.500000e-06 1.248000e-01 1
1 7 3 1.835000e+03 0.000000e+00 1.000000e+00 3.500000e-06 1.248000e-01 1
2 7 3 1.810296e+03 0.000000e+00 1.000000e+00 3.500000e-06 1.248000e-01 1
3 7 3 1.834702e+03 0.000000e+00 1.000000e+00 3.500000e-06 1.248000e-01 1
4 7 3 1.834227e+03 0.000000e+00 1.000000e+00 3.500000e-06 1.248000e-01 1
5 7 3 1.838272e+03 0.000000e+00 1.000000e+00 3.500000e-06 1.248000e-01 1
6 7 3 1.862863e+03 0.000000e+00 1.000000e+00 3.500000e-06 1.248000e-01 1
0 0 4 1.848856e+03 0.000000e+00 1.000000e+00 3.500000e-06 1.248000e-01 1
1 0 4 1.844095e+03 0.000000e+00 1.000000e+00 3.500000e-06 1.248000e-01 1
2 0 4 1.850233e+03 0.000000e+00 1.000000e+00 3.500000e-06 1.248000e-01 1
3 0 4 1.821116e+03 0.000000e+00 1.000000e+00 3.500000e-06 1.248000e-01 1
4 0 4 1.839200e+03 0.000000e+00 1.000000e+00 3.500000e-06 1.248000e-01 1
5 0 4 1.844064e+03 0.000000e+00 1.000000e+00 3.500000e-06 1.248000e-01 1
6 0 4 1.854349e+03 0.000000e+00 1.000000e+00 3.500000e-06 1.248000e-01 1
0 1 4 1.842375e+03 0.000000e+00 1.000000e+00 3.500000e-06 1.248000e-01 1
1 1 4 1.839238e+03 0.000000e+00 1.000000e+00 3.500000e-06 1.248000e-01 1
2 1 4 1.860022e+03 0.000000e+00 1.000000e+00 3.500000e-06 1.248000e-01 1
3 1 4 1.831667e+03 0.000000e+00 1.000000e+00 3.500000e-06 1.248000e-01 1
4 1 4 1.831872e+03 0.000000e+00 1.000000e+00 3.500000e-06 1.248000e-01 1
5 1 4 1.827930e+03 0.000000e+00 1.000000e+00 3.500000e-06 1.248000e-01 1
6 1 4 1.834170e+03 0.000000e+00 1.000000e+00 3.500000e-06 1.248000e-01 1
0 2 4 1.836225e+03 0.000000e+00 1.000000e+00 3.500000e-06 1.248000e-01 1
1 2 4 1.828936e+03 0.000000e+00 1.000000e+00 3.500000e-06 1.248000e-01 1
2 2 4 1.862033e+03 0.000000e+00 1.000000e+00 3.500000e-06 1.248000e-01 1
3 2 4 1.860230e+03 0.000000e+00 1.000000e+00 3.500000e-06 1.248000e-01 1
4 2 4 1.849830e+03 0.000000e+00 1.000000e+00 3.500000e-06 1.248000e-01 1
5 2 4 1.838463e+03 0.000000e+00 1.000000e+00 3.500000e-06 1.248000e-01 1
6 2 4 1.837514e+03 0.000000e+00 1.000000e+00 3.500000e-06 1.248000e-01 1
0 3 4 1.818070e+03 0.000000e+00 1.000000e+00 3.500000e-06 1.248000e-01 1
1 3 4 1.855228e+03 0.000000e+00 1.000000e+00 3.500000e-06 1.248000e-01 1
2 3 4 1.856670e+03 0.000000e+00 1.000000e+00 3.500000e-06 1.248000e-01 1
3 3 4 1.852554e+03 0.000000e+00 1.000000e+00 3.500000e-06 1.248000e-01 1
4 3 4 1.841894e+03 0.000000e+00 1.000000e+00 3.500000e-06 1.248000e-01 1
5 3 4 1.836730e+03 0.000000e+00 1.000000e+00 3.500000e-06 1.248000e-01 1
6 3 4 1.838482e+03 0.000000e+00 1.000000e+00 3.500000e-06 1.248000e-01 1
0 4 4 1.868454e+03 0.000000e+00 1.000000e+00 3.500000e-06 1.248000e-01 1
1 4 4 1.839472e+03 0.000000e+00 1.000000e+00 3.500000e-06 1.248000e-01 1
2 4 4 1.837903e+03 0.000000e+00 1.000000e+00 3.500000e-06 1.248000e-01 1
3 4 4 1.860960e+03 0.000000e+00 1.000000e+00 3.500000e-06 1.248000e-01 1
4 4 4 1.843642e+03 0.000000e+00 1.000000e+00 3.500000e-06 1.248000e-01 1
5 4 4 1.857854e+03 0.000000e+00 1.000000e+00 3.500000e-06 1.248000e-01 1
6 4 4 1.851774e+03 0.000000e+00 1.000000e+00 3.500000e-06 1.248000e-01 1
0 5 4 1.837454e+03 0.000000e+00 1.000000e+00 3.500000e-06 1.248000e-01 1
1 5 4 1.837181e+03 0.000000e+00 1.000000e+00 3.500000e-06 1.248000e-01 1
2 5 4 1.838113e+03 0.000000e+00 1.000000e+00 3.500000e-06 1.248000e-01 1
3 5 4 1.835209e+03 0.000000e+00 1.000000e+00 3.500000e-06 1.248000e-01 1
4 5 4 1.861367e+03 0.000000e+00 1.000000e+00 3.500000e-06 1.248000e-01 1
5 5 4 1.855720e+03 0.000000e+00 1.000000e+00 3.500000e-06 1.248000e-01 1
6 5 4 1.841018e+03 0.000000e+00 1.000000e+00 3.500000e-06 1.248000e-01 1
0 6 4 1.823848e+03 0.000000e+00 1.000000e+00 3.500000e-06 1.248000e-01 1
1 6 4 1.843615e+03 0.000000e+00 1.000000e+00 3.500000e-06 1.248000e-01 1
2 6 4 1.824844e+03 0.000000e+00 1.000000e+00 3.500000e-06 1.248000e-01 1
3 6 4 1.845177e+03 0.000000e+00 1.000000e+00 3.500000e-06 1.248000e-01 1
4 6 4 1.853184e+03 0.000000e+00 1.000000e+00 3.500000e-06 1.248000e-01 1
5 6 4 1.839034e+03 0.000000e+00 1.000000e+00 3.500000e-06 1.248000e-01 1
6 6 4 1.816109e+03 0.000000e+00 1.000000e+00 3.500000e-06 1.248000e-01 1
0 7 4 1.841655e+03 0.000000e+00 1.000000e+00 3.500000e-06 1.248000e-01 1
1 7 4 1.839203e+03 0.000000e+00 1.000000e+00 3.500000e-06 1.248000e-01 1
2 7 4 1.822758e+03 0.000000e+00 1.000000e+00 3.500000e-06 1.248000e-01 1
3 7 4 1.826343e+03 0.000000e+00 1.000000e+00 3.500000e-06 1.248000e-01 1
4 7 4 1.826268e+03 0.000000e+00 1.000000e+00 3.500000e-06 1.248000e-01 1
5 7 4 1.856730e+03 0.000000e+00 1.000000e+00 3.500000e-06 1.248000e-01 1
6 7 4 1.856304e+03 0.000000e+00 1.000000e+00 3.500000e-06 1.248000e-01 1
0 0 5 1.836318e+03 0.000000e+00 1.000000e+00 3.500000e-06 1.248000e-01 1
1 0 5 1.833154e+03 0.000000e+00 1.000000e+00 3.500000e-06 1.248000e-01 1
2 0 5 1.837218e+03 0.000000e+00 1.000000e+00 3.500000e-06 1.248000e-01 1
3 0 5 1.826941e+03 0.000000e+00 1.000000e+00 3.500000e-06 1.248000e-01 1
4 0 5 1.868933e+03 0.000000e+00 1.000000e+00 3.500000e-06 1.248000e-01 1
5 0 5 1.865712e+03 0.000000e+00 1.000000e+00 3.500000e-06 1.248000e-01 1
6 0 5 1.831744e+03 0.000000e+00 1.000000e+00 3.500000e-06 1.248000e-01 1
0 1 5 1.827830e+03 0.000000e+00 1.000000e+00 3.500000e-06 1.248000e-01 1
1 1 5 1.826647e+03 0.000000e+00 1.000000e+00 3.500000e-06 1.248000e-01 1
2 1 5 1.855687e+03 0.000000e+00 1.000000e+00 3.500000e-06 1.248000e-01 1
3 1 5 1.828034e+03 0.000000e+00 1.000000e+00 3.500000e-06 1.248000e-01 1
4 1 5 1.823285e+03 0.000000e+00 1.000000e+00 3.500000e-06 1.248000e-01 1
5 1 5 1.846861e+03 0.000000e+00 1.000000e+00 3.500000e-06 1.248000e-01 1
6 1 5 1.834947e+03 0.000000e+00 1.000000e+00 3.500000e-06 1.248000e-01 1
0 2 5 1.837434e+03 0.000000e+00 1.000000e+00 3.500000e-06 1.248000e-01 1
1 2 5 1.826795e+03 0.000000e+00 1.000000e+00 3.500000e-06 1.248000e-01 1
2 2 5 1.850700e+03 0.000000e+00 1.000000e+00 3.500000e-06 1.248000e-01 1
3 2 5 1.835277e+03 0.000000e+00 1.000000e+00 3.500000e-06 1.248000e-01 1
4 2 5 1.818414e+03 0.000000e+00 1.000000e+00 3.500000e-06 1.248000e-01 1
5 2 5 1.827575e+03 0.000000e+00 1.000000e+00 3.500000e-06 1.248000e-01 1
6 2 5 1.855028e+03 0.000000e+00 1.000000e+00 3.500000e-06 1.248000e-01 1
0 3 5 1.839480e+03 0.000000e+00 1.000000e+00 3.500000e-06 1.248000e-01 1
1 3 5 1.847727e+03 0.000000e+00 1.000000e+00 3.500000e-06 1.248000e-01 1
2 3 5 1.838838e+03 0.000000e+00 1.000000e+00 3.500000e-06 1.248000e-01 1
3 3 5 1.862918e+03 0.000000e+00 1.000000e+00 3.500000e-06 1.248000e-01 1
4 3 5 1.844629e+03 0.000000e+00 1.000000e+00 3.500000e-06 1.248000e-01 1
5 3 5 1.832463e+03 0.000000e+00 1.000000e+00 3.500000e-06 1.248000e-01 1
6 3 5 1.834609e+03 0.000000e+00 1.000000e+00 3.500000e-06 1.248000e-01 1
0 4 5 1.828825e+03 0.000000e+00 1.000000e+00 3.500000e-06 1.248000e-01 1
1 4 5 1.834073e+03 0.000000e+00 1.000000e+00 3.500000e-06 1.248000e-01 1
2 4 5 1.825351e+03 0.000000e+00 1.000000e+00 3.500000e-06 1.248000e-01 1
3 4 5 1.839820e+03 0.000000e+00 1.000000e+00 3.500000e-06 1.248000e-01 1
4 4 5 1.870498e+03 0.000000e+00 1.000000e+00 3.500000e-06 1.248000e-01 1
5 4 5 1.847155e+03 0.000000e+00 1.000000e+00 3.500000e-06 1.248000e-01 1
6 4 5 1.833806e+03 0.000000e+00 1.000000e+00 3.500000e-06 1.248000e-01 1
0 5 5 1.836908e+03 0.000000e+00 1.000000e+00 3.500000e-06 1.248000e-01 1
1 5 5 1.823668e+03 0.000000e+00 1.000000e+00 3.500000e-06 1.248000e-01 1
2 5 5 1.826718e+03 0.000000e+00 1.000000e+00 3.500000e-06 1.248000e-01 1
3 5 5 1.881624e+03 0.000000e+00 1.000000e+00 3.500000e-06 1.248000e-01 1
4 5 5 1.845647e+03 0.000000e+00 1.000000e+00 3.500000e-06 1.248000e-01 1
5 5 5 1.833113e+03 0.000000e+00 1.000000e+00 3.500000e-06 1.248000e-01 1
6 5 5 1.813937e+03 0.000000e+00 1.000000e+00 3.500000e-06 1.248000e-01 1
0 6 5 1.827935e+03 0.000000e+00 1.000000e+00 3.500000e-06 1.248000e-01 1
1 6 5 1.823105e+03 0.000000e+00 1.000000e+00 3.500000e-06 1.248000e-01 1
2 6 5 1.833376e+03 0.000000e+00 1.000000e+00 3.500000e-06 1.248000e-01 1
3 6 5 1.861898e+03 0.000000e+00 1.000000e+00 3.500000e-06 1.248000e-01 1
4 6 5 1.864494e+03 0.000000e+00 1.000000e+00 3.500000e-06 1.248000e-01 1
5 6 5 1.856843e+03 0.000000e+00 1.000000e+00 3.500000e-06 1.248000e-01 1
6 6 5 1.835168e+03 0.000000e+00 1.000000e+00 3.500000e-06 1.248000e-01 1
0 7 5 1.815985e+03 0.000000e+00 1.000000e+00 3.500000e-06 1.248000e-01 1
1 7 5 1.819754e+03 0.000000e+00 1.000000e+00 3.500000e-06 1.248000e-01 1
2 7 5 1.832662e+03 0.000000e+00 1.000000e+00 3.500000e-06 1.248000e-01 1
3 7 5 1.846155e+03 0.000000e+00 1.000000e+00 3.500000e-06 1.248000e-01 1
4 7 5 1.867551e+03 0.000000e+00 1.000000e+00 3.500000e-06 1.248000e-01 1
5 7 5 1.849813e+03 0.000000e+00 1.000000e+00 3.500000e-06 1.248000e-01 1
6 7 5 1.865507e+03 0.000000e+00 1.000000e+00 3.500000e-06 1.248000e-01 1
0 0 6 1.857700e+03 0.000000e+00 1.000000e+00 3.500000e-06 1.248000e-01 1
1 0 6 1.834250e+03 0.000000e+00 1.000000e+00 3.500000e-06 1.248000e-01 1
2 0 6 1.838214e+03 0.000000e+00 1.000000e+00 3.500000e-06 1.248000e-01 1
3 0 6 1.843352e+03 0.000000e+00 1.000000e+00 3.500000e-06 1.248000e-01 1
4 0 6 1.877972e+03 0.000000e+00 1.000000e+00 3.500000e-06 1.248000e-01 1
5 0 6 1.864963e+03 0.000000e+00 1.000000e+00 3.500000e-06 1.248000e-01 1
6 0 6 1.852468e+03 0.000000e+00 1.000000e+00 3.500000e-06 1.248000e-01 1
0 1 6 1.855231e+03 0.000000e+00 1.000000e+00 3.500000e-06 1.248000e-01 1
1 1 6 1.834515e+03 0.000000e+00 1.000000e+00 3.500000e-06 1.248000e-01 1
2 1 6 1.854038e+03 0.000000e+00 1.000000e+00 3.500000e-06 1.248000e-01 1
3 1 6 1.831621e+03 0.000000e+00 1.000000e+00 3.500000e-06 1.248000e-01 1
4 1 6 1.834104e+03 0.000000e+00 1.000000e+00 3.500000e-06 1.248000e-01 1
5 1 6 1.838800e+03 0.000000e+00 1.000000e+00 3.500000e-06 1.248000e-01 1
6 1 6 1.829335e+03 0.000000e+00 1.000000e+00 3.500000e-06 1.248000e-01 1
0 2 6 1.812241e+03 0.000000e+00 1.000000e+00 3.500000e-06 1.248000e-01 1
1 2 6 1.834934e+03 0.000000e+00 1.000000e+00 3.500000e-06 1.248000e-01 1
2 2 6 1.861405e+03 0.000000e+00 1.000000e+00 3.500000e-06 1.248000e-01 1
3 2 6 1.847400e+03 0.000000e+00 1.000000e+00 3.500000e-06 1.248000e-01 1
4 2 6 1.833342e+03 0.000000e+00 1.000000e+00 3.500000e-06 1.248000e-01 1
5 2 6 1.835230e+03 0.000000e+00 1.000000e+00 3.500000e-06 1.248000e-01 1
6 2 6 1.841246e+03 0.000000e+00 1.000000e+00 3.500000e-06 1.248000e-01 1
0 3 6 1.802598e+03 0.000000e+00 1.000000e+00 3.500000e-06 1.248000e-01 1
1 3 6 1.861655e+03 0.000000e+00 1.000000e+00 3.500000e-06 1.248000e-01 1
2 3 6 1.843393e+03 0.000000e+00 1.000000e+00 3.500000e-06 1.248000e-01 1
3 3 6 1.865569e+03 0.000000e+00 1.000000e+00 3.500000e-06 1.248000e-01 1
4 3 6 1.863412e+03 0.000000e+00 1.000000e+00 3.500000e-06 1.248000e-01 1
5 3 6 1.842528e+03 0.000000e+00 1.000000e+00 3.500000e-06 1.248000e-01 1
6 3 6 1.848666e+03 0.000000e+00 1.000000e+00 3.500000e-06 1.248000e-01 1
0 4 6 1.850078e+03 0.000000e+00 1.000000e+00 3.500000e-06 1.248000e-01 1
1 4 6 1.825382e+03 0.000000e+00 1.000000e+00 3.500000e-06 1.248000e-01 1
2 4 6 1.852918e+03 0.000000e+00 1.000000e+00 3.500000e-06 1.248000e-01 1
3 4 6 1.836818e+03 0.000000e+00 1.000000e+00 3.500000e-06 1.248000e-01 1
4 4 6 1.827276e+03 0.000000e+00 1.000000e+00 3.500000e-06 1.248000e-01 1
5 4 6 1.850478e+03 0.000000e+00 1.000000e+00 3.500000e-06 1.248000e-01 1
6 4 6 1.820926e+03 0.000000e+00 1.000000e+00 3.500000e-06 1.248000e-01 1
0 5 6 1.826455e+03 0.000000e+00 1.000000e+00 3.500000e-06 1.248000e-01 1
1 5 6 1.859242e+03 0.000000e+00 1.000000e+00 3.500000e-06 1.248000e-01 1
2 5 6 1.842246e+03 0.000000e+00 1.000000e+00 3.500000e-06 1.248000e-01 1
3 5 6 1.861421e+03 0.000000e+00 1.000000e+00 3.500000e-06 1.248000e-01 1
4 5 6 1.829314e+03 0.000000e+00 1.000000e+00 3.500000e-06 1.248000e-01 1
5 5 6 1.826800e+03 0.000000e+00 1.000000e+00 3.500000e-06 1.248000e-01 1
6 5 6 1.841727e+03 0.000000e+00 1.000000e+00 3.500000e-06 1.248000e-01 1
0 6 6 1.802423e+03 0.000000e+00 1.000000e+00 3.500000e-06 1.248000e-01 1
1 6 6 1.864206e+03 0.000000e+00 1.000000e+00 3.500000e-06 1.248000e-01 1
2 6 6 1.843766e+03 0.000000e+00 1.000000e+00 3.500000e-06 1.248000e-01 1
3 6 6 1.886557e+03 0.000000e+00 1.000000e+00 3.500000e-06 1.248000e-01 1
4 6 6 1.841958e+03 0.000000e+00 1.000000e+00 3.500000e-06 1.248000e-01 1
5 6 6 1.844046e+03 0.000000e+00 1.000000e+00 3.500000e-06 1.248000e-01 1
6 6 6 1.831232e+03 0.000000e+00 1.000000e+00 3.500000e-06 1.248000e-01 1
0 7 6 1.838513e+03 0.000000e+00 1.000000e+00 3.500000e-06 1.248000e-01 1
1 7 6 1.825720e+03 0.000000e+00 1.000000e+00 3.500000e-06 1.248000e-01 1
2 7 6 1.821069e+03 0.000000e+00 1.000000e+00 3.500000e-06 1.248000e-01 1
3 7 6 1.846586e+03 0.000000e+00 1.000000e+00 3.500000e-06 1.248000e-01 1
4 7 6 1.843999e+03 0.000000e+00 1.000000e+00 3.500000e-06 1.248000e-01 1
5 7 6 1.863517e+03 0.000000e+00 1.000000e+00 3.500000e-06 1.248000e-01 1
6 7 6 1.839957e+03 0.000000e+00 1.000000e+00 3.500000e-06 1.248000e-01 1
0 0 7 1.832324e+03 0.000000e+00 1.000000e+00 3.500000e-06 1.248000e-01 1
1 0 7 1.835660e+03 0.000000e+00 1.000000e+00 3.500000e-06 1.248000e-01 1
2 0 7 1.831506e+03 0.000000e+00 1.000000e+00 3.500000e-06 1.248000e-01 1
3 0 7 1.841258e+03 0.000000e+00 1.000000e+00 3.500000e-06 1.248000e-01 1
4 0 7 1.853723e+03 0.000000e+00 1.000000e+00 3.500000e-06 1.248000e-01 1
5 0 7 1.839917e+03 0.000000e+00 1.000000e+00 3.500000e-06 1.248000e-01 1
6 0 7 1.848706e+03 0.000000e+00 1.000000e+00 3.500000e-06 1.248000e-01 1
0 1 7 1.852963e+03 0.000000e+00 1.000000e+00 3.500000e-06 1.248000e-01 1
1 1 7 1.828688e+03 0.000000e+00 1.000000e+00 3.500000e-06 1.248000e-01 1
2 1 7 1.824254e+03 0.000000e+00 1.000000e+00 3.500000e-06 1.248000e-01 1
3 1 7 1.830638e+03 0.000000e+00 1.000000e+00 3.500000e-06 1.248000e-01 1
4 1 7 1.809142e+03 0.000000e+00 1.000000e+00 3.500000e-06 1.248000e-01 1
5 1 7 1.849799e+03 0.000000e+00 1.000000e+00 3.500000e-06 1.248000e-01 1
6 1 7 1.829327e+03 0.000000e+00 1.000000e+00 3.500000e-06 1.248000e-01 1
0 2 7 1.825090e+03 0.000000e+00 1.000000e+00 3.500000e-06 1.248000e-01 1
1 2 7 1.807789e+03 0.000000e+00 1.000000e+00 3.500000e-06 1.248000e-01 1
2 2 7 1.824540e+03 0.000000e+00 1.000000e+00 3.500000e-06 1.248000e-01 1