# A comment
#
#
8 8 8 1
0.000000e+00 2.816000e+01
0.000000e+00 2.816000e+01
0.000000e+00 2.816000e+01
0 0 0 1.759929e+03 0.000000e+00 1.000000e+00 3.500000e-06 1.248000e-01 1
1 0 0 1.764312e+03 0.000000e+00 1.000000e+00 3.500000e-06 1.248000e-01 1
2 0 0 1.760557e+03 0.000000e+00 1.000000e+00 3.500000e-06 1.248000e-01 1
3 0 0 1.756582e+03 0.000000e+00 1.000000e+00 3.500000e-06 1.248000e-01 1
4 0 0 1.762562e+03 0.000000e+00 1.000000e+00 3.500000e-06 1.248000e-01 1
5 0 0 1.759118e+03 0.000000e+00 1.000000e+00 3.500000e-06 1.248000e-01 1
6 0 0 1.765106e+03 0.000000e+00 1.000000e+00 3.500000e-06 1.248000e-01 1
7 0 0 1.754463e+03 0.000000e+00 1.000000e+00 3.500000e-06 1.248000e-01 1
0 1 0 1.766734e+03 0.000000e+00 1.000000e+00 3.500000e-06 1.248000e-01 1
1 1 0 1.759918e+03 0.000000e+00 1.000000e+00 3.500000e-06 1.248000e-01 1
2 1 0 1.751967e+03 0.000000e+00 1.000000e+00 3.500000e-06 1.248000e-01 1
3 1 0 1.766662e+03 0.000000e+00 1.000000e+00 3.500000e-06 1.248000e-01 1
4 1 0 1.763076e+03 0.000000e+00 1.000000e+00 3.500000e-06 1.248000e-01 1
5 1 0 1.746339e+03 0.000000e+00 1.000000e+00 3.500000e-06 1.248000e-01 1
6 1 0 1.754588e+03 0.000000e+00 1.000000e+00 3.500000e-06 1.248000e-01 1
7 1 0 1.770312e+03 0.000000e+00 1.000000e+00 3.500000e-06 1.248000e-01 1
0 2 0 1.769990e+03 0.000000e+00 1.000000e+00 3.500000e-06 1.248000e-01 1
1 2 0 1.751879e+03 0.000000e+00 1.000000e+00 3.500000e-06 1.248000e-01 1
2 2 0 1.762363e+03 0.000000e+00 1.000000e+00 3.500000e-06 1.248000e-01 1
3 2 0 1.745050e+03 0.000000e+00 1.000000e+00 3.500000e-06 1.248000e-01 1
4 2 0 1.757848e+03 0.000000e+00 1.000000e+00 3.500000e-06 1.248000e-01 1
5 2 0 1.752113e+03 0.000000e+00 1.000000e+00 3.500000e-06 1.248000e-01 1
6 2 0 1.769731e+03 0.000000e+00 1.000000e+00 3.500000e-06 1.248000e-01 1
7 2 0 1.757287e+03 0.000000e+00 1.000000e+00 3.500000e-06 1.248000e-01 1
0 3 0 1.751567e+03 0.000000e+00 1.000000e+00 3.500000e-06 1.248000e-01 1
1 3 0 1.749591e+03 0.000000e+00 1.000000e+00 3.500000e-06 1.248000e-01 1
2 3 0 1.758604e+03 0.000000e+00 1.000000e+00 3.500000e-06 1.248000e-01 1
3 3 0 1.750339e+03 0.000000e+00 1.000000e+00 3.500000e-06 1.248000e-01 1
4 3 0 1.752289e+03 0.000000e+00 1.000000e+00 3.500000e-06 1.248000e-01 1
5 3 0 1.749179e+03 0.000000e+00 1.000000e+00 3.500000e-06 1.248000e-01 1
6 3 0 1.752374e+03 0.000000e+00 1.000000e+00 3.500000e-06 1.248000e-01 1
7 3 0 1.761117e+03 0.000000e+00 1.000000e+00 3.500000e-06 1.248000e-01 1
0 4 0 1.755589e+03 0.000000e+00 1.000000e+00 3.500000e-06 1.248000e-01 1
1 4 0 1.752336e+03 0.000000e+00 1.000000e+00 3.500000e-06 1.248000e-01 1
2 4 0 1.768592e+03 0.000000e+00 1.000000e+00 3.500000e-06 1.248000e-01 1
3 4 0 1.751519e+03 0.000000e+00 1.000000e+00 3.500000e-06 1.248000e-01 1
4 4 0 1.757502e+03 0.000000e+00 1.000000e+00 3.500000e-06 1.248000e-01 1
5 4 0 1.751567e+03 0.000000e+00 1.000000e+00 3.500000e-06 1.248000e-01 1
6 4 0 1.752850e+03 0.000000e+00 1.000000e+00 3.500000e-06 1.248000e-01 1
7 4 0 1.745480e+03 0.000000e+00 1.000000e+00 3.500000e-06 1.248000e-01 1
0 5 0 1.762997e+03 0.000000e+00 1.000000e+00 3.500000e-06 1.248000e-01 1
1 5 0 1.769467e+03 0.000000e+00 1.000000e+00 3.500000e-06 1.248000e-01 1
2 5 0 1.754510e+03 0.000000e+00 1.000000e+00 3.500000e-06 1.248000e-01 1
3 5 0 1.752333e+03 0.000000e+00 1.000000e+00 3.500000e-06 1.248000e-01 1
4 5 0 1.755566e+03 0.000000e+00 1.000000e+00 3.500000e-06 1.248000e-01 1
5 5 0 1.772754e+03 0.000000e+00 1.000000e+00 3.500000e-06 1.248000e-01 1
6 5 0 1.750167e+03 0.000000e+00 1.000000e+00 3.500000e-06 1.248000e-01 1
7 5 0 1.756313e+03 0.000000e+00 1.000000e+00 3.500000e-06 1.248000e-01 1
0 6 0 1.747098e+03 0.000000e+00 1.000000e+00 3.500000e-06 1.248000e-01 1
1 6 0 1.767877e+03 0.000000e+00 1.000000e+00 3.500000e-06 1.248000e-01 1
2 6 0 1.762643e+03 0.000000e+00 1.000000e+00 3.500000e-06 1.248000e-01 1
3 6 0 1.749477e+03 0.000000e+00 1.000000e+00 3.500000e-06 1.248000e-01 1
4 6 0 1.766997e+03 0.000000e+00 1.000000e+00 3.500000e-06 1.248000e-01 1
5 6 0 1.760337e+03 0.000000e+00 1.000000e+00 3.500000e-06 1.248000e-01 1
6 6 0 1.754531e+03 0.000000e+00 1.000000e+00 3.500000e-06 1.248000e-01 1
7 6 0 1.757383e+03 0.000000e+00 1.000000e+00 3.500000e-06 1.248000e-01 1
0 7 0 1.760616e+03 0.000000e+00 1.000000e+00 3.500000e-06 1.248000e-01 1
1 7 0 1.765115e+03 0.000000e+00 1.000000e+00 3.500000e-06 1.248000e-01 1
2 7 0 1.763929e+03 0.000000e+00 1.000000e+00 3.500000e-06 1.248000e-01 1
3 7 0 1.753133e+03 0.000000e+00 1.000000e+00 3.500000e-06 1.248000e-01 1
4 7 0 1.759930e+03 0.000000e+00 1.000000e+00 3.500000e-06 1.248000e-01 1
5 7 0 1.748157e+03 0.000000e+00 1.000000e+00 3.500000e-06 1.248000e-01 1
6 7 0 1.750805e+03 0.000000e+00 1.000000e+00 3.500000e-06 1.248000e-01 1
7 7 0 1.771538e+03 0.000000e+00 1.000000e+00 3.500000e-06 1.248000e-01 1
0 0 1 1.759703e+03 0.000000e+00 1.000000e+00 3.500000e-06 1.248000e-01 1
1 0 1 1.761699e+03 0.000000e+00 1.000000e+00 3.500000e-06 1.248000e-01 1
2 0 1 1.756859e+03 0.000000e+00 1.000000e+00 3.500000e-06 1.248000e-01 1
3 0 1 1.756127e+03 0.000000e+00 1.000000e+00 3.500000e-06 1.248000e-01 1
4 0 1 1.774032e+03 0.000000e+00 1.000000e+00 3.500000e-06 1.248000e-01 1
5 0 1 1.756692e+03 0.000000e+00 1.000000e+00 3.500000e-06 1.248000e-01 1
6 0 1 1.763692e+03 0.000000e+00 1.000000e+00 3.500000e-06 1.248000e-01 1
7 0 1 1.751580e+03 0.000000e+00 1.000000e+00 3.500000e-06 1.248000e-01 1
0 1 1 1.761905e+03 0.000000e+00 1.000000e+00 3.500000e-06 1.248000e-01 1
1 1 1 1.767300e+03 0.000000e+00 1.000000e+00 3.500000e-06 1.248000e-01 1
2 1 1 1.750043e+03 0.000000e+00 1.000000e+00 3.500000e-06 1.248000e-01 1
3 1 1 1.774198e+03 0.000000e+00 1.000000e+00 3.500000e-06 1.248000e-01 1
4 1 1 1.762383e+03 0.000000e+00 1.000000e+00 3.500000e-06 1.248000e-01 1
5 1 1 1.772144e+03 0.000000e+00 1.000000e+00 3.500000e-06 1.248000e-01 1
6 1 1 1.766733e+03 0.000000e+00 1.000000e+00 3.500000e-06 1.248000e-01 1
7 1 1 1.763343e+03 0.000000e+00 1.000000e+00 3.500000e-06 1.248000e-01 1
0 2 1 1.748177e+03 0.000000e+00 1.000000e+00 3.500000e-06 1.248000e-01 1
1 2 1 1.762111e+03 0.000000e+00 1.000000e+00 3.500000e-06 1.248000e-01 1
2 2 1 1.748223e+03 0.000000e+00 1.000000e+00 3.500000e-06 1.248000e-01 1
3 2 1 1.765848e+03 0.000000e+00 1.000000e+00 3.500000e-06 1.248000e-01 1
4 2 1 1.757455e+03 0.000000e+00 1.000000e+00 3.500000e-06 1.248000e-01 1
5 2 1 1.754942e+03 0.000000e+00 1.000000e+00 3.500000e-06 1.248000e-01 1
6 2 1 1.772611e+03 0.000000e+00 1.000000e+00 3.500000e-06 1.248000e-01 1
7 2 1 1.765652e+03 0.000000e+00 1.000000e+00 3.500000e-06 1.248000e-01 1
0 3 1 1.748047e+03 0.000000e+00 1.000000e+00 3.500000e-06 1.248000e-01 1
1 3 1 1.751500e+03 0.000000e+00 1.000000e+00 3.500000e-06 1.248000e-01 1
2 3 1 1.760681e+03 0.000000e+00 1.000000e+00 3.500000e-06 1.248000e-01 1
3 3 1 1.750071e+03 0.000000e+00 1.000000e+00 3.500000e-06 1.248000e-01 1
4 3 1 1.749306e+03 0.000000e+00 1.000000e+00 3.500000e-06 1.248000e-01 1
5 3 1 1.757402e+03 0.000000e+00 1.000000e+00 3.500000e-06 1.248000e-01 1
6 3 1 1.767936e+03 0.000000e+00 1.000000e+00 3.500000e-06 1.248000e-01 1
7 3 1 1.763796e+03 0.000000e+00 1.000000e+00 3.500000e-06 1.248000e-01 1
0 4 1 1.761039e+03 0.000000e+00 1.000000e+00 3.500000e-06 1.248000e-01 1
1 4 1 1.760480e+03 0.000000e+00 1.000000e+00 3.500000e-06 1.248000e-01 1
2 4 1 1.751016e+03 0.000000e+00 1.000000e+00 3.500000e-06 1.248000e-01 1
3 4 1 1.758791e+03 0.000000e+00 1.000000e+00 3.500000e-06 1.248000e-01 1
4 4 1 1.755391e+03 0.000000e+00 1.000000e+00 3.500000e-06 1.248000e-01 1
5 4 1 1.761734e+03 0.000000e+00 1.000000e+00 3.500000e-06 1.248000e-01 1
6 4 1 1.755156e+03 0.000000e+00 1.000000e+00 3.500000e-06 1.248000e-01 1
7 4 1 1.756791e+03 0.000000e+00 1.000000e+00 3.500000e-06 1.248000e-01 1
0 5 1 1.753446e+03 0.000000e+00 1.000000e+00 3.500000e-06 1.248000e-01 1
1 5 1 1.759548e+03 0.000000e+00 1.000000e+00 3.500000e-06 1.248000e-01 1
2 5 1 1.744747e+03 0.000000e+00 1.000000e+00 3.500000e-06 1.248000e-01 1
3 5 1 1.760084e+03 0.000000e+00 1.000000e+00 3.500000e-06 1.248000e-01 1
4 5 1 1.748323e+03 0.000000e+00 1.000000e+00 3.500000e-06 1.248000e-01 1
5 5 1 1.753756e+03 0.000000e+00 1.000000e+00 3.500000e-06 1.248000e-01 1
6 5 1 1.764698e+03 0.000000e+00 1.000000e+00 3.500000e-06 1.248000e-01 1
7 5 1 1.763603e+03 0.000000e+00 1.000000e+00 3.500000e-06 1.248000e-01 1
0 6 1 1.761266e+03 0.000000e+00 1.000000e+00 3.500000e-06 1.248000e-01 1
1 6 1 1.764726e+03 0.000000e+00 1.000000e+00 3.500000e-06 1.248000e-01 1
2 6 1 1.750390e+03 0.000000e+00 1.000000e+00 3.500000e-06 1.248000e-01 1
3 6 1 1.756413e+03 0.000000e+00 1.000000e+00 3.500000e-06 1.248000e-01 1
4 6 1 1.763929e+03 0.000000e+00 1.000000e+00 3.500000e-06 1.248000e-01 1
5 6 1 1.756357e+03 0.000000e+00 1.000000e+00 3.500000e-06 1.248000e-01 1
6 6 1 1.760625e+03 0.000000e+00 1.000000e+00 3.500000e-06 1.248000e-01 1
7 6 1 1.757030e+03 0.000000e+00 1.000000e+00 3.500000e-06 1.248000e-01 1
0 7 1 1.770561e+03 0.000000e+00 1.000000e+00 3.500000e-06 1.248000e-01 1
1 7 1 1.765437e+03 0.000000e+00 1.000000e+00 3.500000e-06 1.248000e-01 1
2 7 1 1.743978e+03 0.000000e+00 1.000000e+00 3.500000e-06 1.248000e-01 1
3 7 1 1.757225e+03 0.000000e+00 1.000000e+00 3.500000e-06 1.248000e-01 1
4 7 1 1.753817e+03 0.000000e+00 1.000000e+00 3.500000e-06 1.248000e-01 1
5 7 1 1.755308e+03 0.000000e+00 1.000000e+00 3.500000e-06 1.248000e-01 1
6 7 1 1.753264e+03 0.000000e+00 1.000000e+00 3.500000e-06 1.248000e-01 1
7 7 1 1.757049e+03 0.000000e+00 1.000000e+00 3.500000e-06 1.248000e-01 1
0 0 2 1.755697e+03 0.000000e+00 1.000000e+00 3.500000e-06 1.248000e-01 1
1 0 2 1.763692e+03 0.000000e+00 1.000000e+00 3.500000e-06 1.248000e-01 1
2 0 2 1.760325e+03 0.000000e+00 1.000000e+00 3.500000e-06 1.248000e-01 1
3 0 2 1.761843e+03 0.000000e+00 1.000000e+00 3.500000e-06 1.248000e-01 1
4 0 2 1.762885e+03 0.000000e+00 1.000000e+00 3.500000e-06 1.248000e-01 1
5 0 2 1.773496e+03 0.000000e+00 1.000000e+00 3.500000e-06 1.248000e-01 1
6 0 2 1.758157e+03 0.000000e+00 1.000000e+00 3.500000e-06 1.248000e-01 1
7 0 2 1.776407e+03 0.000000e+00 1.000000e+00 3.500000e-06 1.248000e-01 1
0 1 2 1.762150e+03 0.000000e+00 1.000000e+00 3.500000e-06 1.248000e-01 1
1 1 2 1.762042e+03 0.000000e+00 1.000000e+00 3.500000e-06 1.248000e-01 1
2 1 2 1.757357e+03 0.000000e+00 1.000000e+00 3.500000e-06 1.248000e-01 1
3 1 2 1.763886e+03 0.000000e+00 1.000000e+00 3.500000e-06 1.248000e-01 1
4 1 2 1.766887e+03 0.000000e+00 1.000000e+00 3.500000e-06 1.248000e-01 1
5 1 2 1.766474e+03 0.000000e+00 1.000000e+00 3.500000e-06 1.248000e-01 1
6 1 2 1.751759e+03 0.000000e+00 1.000000e+00 3.500000e-06 1.248000e-01 1
7 1 2 1.761216e+03 0.000000e+00 1.000000e+00 3.500000e-06 1.248000e-01 1
0 2 2 1.747552e+03 0.000000e+00 1.000000e+00 3.500000e-06 1.248000e-01 1
1 2 2 1.750233e+03 0.000000e+00 1.000000e+00 3.500000e-06 1.248000e-01 1
2 2 2 1.746911e+03 0.000000e+00 1.000000e+00 3.500000e-06 1.248000e-01 1
3 2 2 1.754474e+03 0.000000e+00 1.000000e+00 3.500000e-06 1.248000e-01 1
4 2 2 1.745892e+03 0.000000e+00 1.000000e+00 3.500000e-06 1.248000e-01 1
5 2 2 1.765324e+03 0.000000e+00 1.000000e+00 3.500000e-06 1.248000e-01 1
6 2 2 1.759085e+03 0.000000e+00 1.000000e+00 3.500000e-06 1.248000e-01 1
7 2 2 1.758455e+03 0.000000e+00 1.000000e+00 3.500000e-06 1.248000e-01 1
0 3 2 1.747804e+03 0.000000e+00 1.000000e+00 3.500000e-06 1.248000e-01 1
1 3 2 1.759071e+03 0.000000e+00 1.000000e+00 3.500000e-06 1.248000e-01 1
2 3 2 1.755909e+03 0.000000e+00 1.000000e+00 3.500000e-06 1.248000e-01 1
3 3 2 1.751930e+03 0.000000e+00 1.000000e+00 3.500000e-06 1.248000e-01 1
4 3 2 1.767963e+03 0.000000e+00 1.000000e+00 3.500000e-06 1.248000e-01 1
5 3 2 1.760003e+03 0.000000e+00 1.000000e+00 3.500000e-06 1.248000e-01 1
6 3 2 1.744114e+03 0.000000e+00 1.000000e+00 3.500000e-06 1.248000e-01 1
7 3 2 1.740425e+03 0.000000e+00 1.000000e+00 3.500000e-06 1.248000e-01 1
0 4 2 1.757076e+03 0.000000e+00 1.000000e+00 3.500000e-06 1.248000e-01 1
1 4 2 1.759627e+03 0.000000e+00 1.000000e+00 3.500000e-06 1.248000e-01 1
2 4 2 1.747508e+03 0.000000e+00 1.000000e+00 3.500000e-06 1.248000e-01 1
3 4 2 1.752098e+03 0.000000e+00 1.000000e+00 3.500000e-06 1.248000e-01 1
4 4 2 1.760685e+03 0.000000e+00 1.000000e+00 3.500000e-06 1.248000e-01 1
5 4 2 1.752622e+03 0.000000e+00 1.000000e+00 3.500000e-06 1.248000e-01 1
6 4 2 1.767651e+03 0.000000e+00 1.000000e+00 3.500000e-06 1.248000e-01 1
7 4 2 1.739110e+03 0.000000e+00 1.000000e+00 3.500000e-06 1.248000e-01 1
0 5 2 1.771872e+03 0.000000e+00 1.000000e+00 3.500000e-06 1.248000e-01 1
1 5 2 1.750152e+03 0.000000e+00 1.000000e+00 3.500000e-06 1.248000e-01 1
2 5 2 1.761223e+03 0.000000e+00 1.000000e+00 3.500000e-06 1.248000e-01 1
3 5 2 1.757746e+03 0.000000e+00 1.000000e+00 3.500000e-06 1.248000e-01 1
4 5 2 1.773092e+03 0.000000e+00 1.000000e+00 3.500000e-06 1.248000e-01 1
5 5 2 1.719429e+03 0.000000e+00 1.000000e+00 3.500000e-06 1.248000e-01 1
6 5 2 1.788862e+03 0.000000e+00 1.000000e+00 3.500000e-06 1.248000e-01 1
7 5 2 1.738774e+03 0.000000e+00 1.000000e+00 3.500000e-06 1.248000e-01 1
0 6 2 1.763643e+03 0.000000e+00 1.000000e+00 3.500000e-06 1.248000e-01 1
1 6 2 1.761550e+03 0.000000e+00 1.000000e+00 3.500000e-06 1.248000e-01 1
2 6 2 1.751048e+03 0.000000e+00 1.000000e+00 3.500000e-06 1.248000e-01 1
3 6 2 1.766745e+03 0.000000e+00 1.000000e+00 3.500000e-06 1.248000e-01 1
4 6 2 1.746096e+03 0.000000e+00 1.000000e+00 3.500000e-06 1.248000e-01 1
5 6 2 1.743941e+03 0.000000e+00 1.000000e+00 3.500000e-06 1.248000e-01 1
6 6 2 1.755742e+03 0.000000e+00 1.000000e+00 3.500000e-06 1.248000e-01 1
7 6 2 1.748013e+03 0.000000e+00 1.000000e+00 3.500000e-06 1.248000e-01 1
0 7 2 1.768763e+03 0.000000e+00 1.000000e+00 3.500000e-06 1.248000e-01 1
1 7 2 1.763504e+03 0.000000e+00 1.000000e+00 3.500000e-06 1.248000e-01 1
2 7 2 1.767107e+03 0.000000e+00 1.000000e+00 3.500000e-06 1.248000e-01 1
3 7 2 1.775599e+03 0.000000e+00 1.000000e+00 3.500000e-06 1.248000e-01 1
4 7 2 1.754875e+03 0.000000e+00 1.000000e+00 3.500000e-06 1.248000e-01 1
5 7 2 1.741072e+03 0.000000e+00 1.000000e+00 3.500000e-06 1.248000e-01 1
6 7 2 1.754801e+03 0.000000e+00 1.000000e+00 3.500000e-06 1.248000e-01 1
7 7 2 1.767393e+03 0.000000e+00 1.000000e+00 3.500000e-06 1.248000e-01 1
0 0 3 1.764457e+03 0.000000e+00 1.000000e+00 3.500000e-06 1.248000e-01 1
1 0 3 1.761896e+03 0.000000e+00 1.000000e+00 3.500000e-06 1.248000e-01 1
2 0 3 1.757169e+03 0.000000e+00 1.000000e+00 3.500000e-06 1.248000e-01 1
3 0 3 1.755234e+03 0.000000e+00 1.000000e+00 3.500000e-06 1.248000e-01 1
4 0 3 1.762277e+03 0.000000e+00 1.000000e+00 3.500000e-06 1.248000e-01 1
5 0 3 1.747991e+03 0.000000e+00 1.000000e+00 3.500000e-06 1.248000e-01 1
6 0 3 1.759152e+03 0.000000e+00 1.000000e+00 3.500000e-06 1.248000e-01 1
7 0 3 1.754200e+03 0.000000e+00 1.000000e+00 3.500000e-06 1.248000e-01 1
0 1 3 1.765170e+03 0.000000e+00 1.000000e+00 3.500000e-06 1.248000e-01 1
1 1 3 1.761125e+03 0.000000e+00 1.000000e+00 3.500000e-06 1.248000e-01 1
2 1 3 1.761182e+03 0.000000e+00 1.000000e+00 3.500000e-06 1.248000e-01 1
3 1 3 1.758874e+03 0.000000e+00 1.000000e+00 3.500000e-06 1.248000e-01 1
4 1 3 1.767920e+03 0.000000e+00 1.000000e+00 3.500000e-06 1.248000e-01 1
5 1 3 1.761663e+03 0.000000e+00 1.000000e+00 3.500000e-06 1.248000e-01 1
6 1 3 1.753858e+03 0.000000e+00 1.000000e+00 3.500000e-06 1.248000e-01 1
7 1 3 1.763091e+03 0.000000e+00 1.000000e+00 3.500000e-06 1.248000e-01 1
0 2 3 1.754908e+03 0.000000e+00 1.000000e+00 3.500000e-06 1.248000e-01 1
1 2 3 1.759524e+03 0.000000e+00 1.000000e+00 3.500000e-06 1.248000e-01 1
2 2 3 1.752147e+03 0.000000e+00 1.000000e+00 3.500000e-06 1.248000e-01 1
3 2 3 1.755838e+03 0.000000e+00 1.000000e+00 3.500000e-06 1.248000e-01 1
4 2 3 1.752159e+03 0.000000e+00 1.000000e+00 3.500000e-06 1.248000e-01 1
5 2 3 1.760407e+03 0.000000e+00 1.000000e+00 3.500000e-06 1.248000e-01 1
6 2 3 1.750275e+03 0.000000e+00 1.000000e+00 3.500000e-06 1.248000e-01 1
7 2 3 1.744077e+03 0.000000e+00 1.000000e+00 3.500000e-06 1.248000e-01 1
0 3 3 1.751212e+03 0.000000e+00 1.000000e+00 3.500000e-06 1.248000e-01 1
1 3 3 1.748591e+03 0.000000e+00 1.000000e+00 3.500000e-06 1.248000e-01 1
2 3 3 1.732875e+03 0.000000e+00 1.000000e+00 3.500000e-06 1.248000e-01 1
3 3 3 1.748862e+03 0.000000e+00 1.000000e+00 3.500000e-06 1.248000e-01 1
4 3 3 1.749744e+03 0.000000e+00 1.000000e+00 3.500000e-06 1.248000e-01 1
5 3 3 1.752920e+03 0.000000e+00 1.000000e+00 3.500000e-06 1.248000e-01 1
6 3 3 1.758595e+03 0.000000e+00 1.000000e+00 3.500000e-06 1.248000e-01 1
7 3 3 1.750843e+03 0.000000e+00 1.000000e+00 3.500000e-06 1.248000e-01 1
0 4 3 1.756815e+03 0.000000e+00 1.000000e+00 3.500000e-06 1.248000e-01 1
1 4 3 1.749873e+03 0.000000e+00 1.000000e+00 3.500000e-06 1.248000e-01 1
2 4 3 1.747858e+03 0.000000e+00 1.000000e+00 3.500000e-06 1.248000e-01 1
3 4 3 1.756976e+03 0.000000e+00 1.000000e+00 3.500000e-06 1.248000e-01 1
4 4 3 1.740916e+03 0.000000e+00 1.000000e+00 3.500000e-06 1.248000e-01 1
5 4 3 1.753676e+03 0.000000e+00 1.000000e+00 3.500000e-06 1.248000e-01 1
6 4 3 1.773104e+03 0.000000e+00 1.000000e+00 3.500000e-06 1.248000e-01 1
7 4 3 1.748077e+03 0.000000e+00 1.000000e+00 3.500000e-06 1.248000e-01 1
0 5 3 1.755453e+03 0.000000e+00 1.000000e+00 3.500000e-06 1.248000e-01 1
1 5 3 1.758153e+03 0.000000e+00 1.000000e+00 3.500000e-06 1.248000e-01 1
2 5 3 1.759545e+03 0.000000e+00 1.000000e+00 3.500000e-06 1.248000e-01 1
3 5 3 1.757100e+03 0.000000e+00 1.000000e+00 3.500000e-06 1.248000e-01 1
4 5 3 1.756599e+03 0.000000e+00 1.000000e+00 3.500000e-06 1.248000e-01 1
5 5 3 1.794115e+03 0.000000e+00 1.000000e+00 3.500000e-06 1.248000e-01 1
6 5 3 1.785199e+03 0.000000e+00 1.000000e+00 3.500000e-06 1.248000e-01 1
7 5 3 1.762398e+03 0.000000e+00 1.000000e+00 3.500000e-06 1.248000e-01 1
0 6 3 1.758598e+03 0.000000e+00 1.000000e+00 3.500000e-06 1.248000e-01 1
1 6 3 1.760390e+03 0.000000e+00 1.000000e+00 3.500000e-06 1.248000e-01 1
2 6 3 1.752695e+03 0.000000e+00 1.000000e+00 3.500000e-06 1.248000e-01 1
3 6 3 1.762875e+03 0.000000e+00 1.000000e+00 3.500000e-06 1.248000e-01 1
4 6 3 1.753597e+03 0.000000e+00 1.000000e+00 3.500000e-06 1.248000e-01 1
5 6 3 1.756603e+03 0.000000e+00 1.000000e+00 3.500000e-06 1.248000e-01 1
6 6 3 1.745840e+03 0.000000e+00 1.000000e+00 3.500000e-06 1.248000e-01 1
7 6 3 1.742384e+03 0.000000e+00 1.000000e+00 3.500000e-06 1.248000e-01 1
0 7 3 1.769745e+03 0.000000e+00 1.000000e+00 3.500000e-06 1.248000e-01 1
1 7 3 1.773565e+03 0.000000e+00 1.000000e+00 3.500000e-06 1.248000e-01 1
2 7 3 1.761377e+03 0.000000e+00 1.000000e+00 3.500000e-06 1.248000e-01 1
3 7 3 1.754952e+03 0.000000e+00 1.000000e+00 3.500000e-06 1.248000e-01 1
4 7 3 1.765482e+03 0.000000e+00 1.000000e+00 3.500000e-06 1.248000e-01 1
5 7 3 1.748117e+03 0.000000e+00 1.000000e+00 3.500000e-06 1.248000e-01 1
6 7 3 1.749671e+03 0.000000e+00 1.000000e+00 3.500000e-06 1.248000e-01 1
7 7 3 1.760412e+03 0.000000e+00 1.000000e+00 3.500000e-06 1.248000e-01 1
0 0 4 1.770373e+03 0.000000e+00 1.000000e+00 3.500000e-06 1.248000e-01 1
1 0 4 1.773487e+03 0.000000e+00 1.000000e+00 3.500000e-06 1.248000e-01 1
2 0 4 1.741922e+03 0.000000e+00 1.000000e+00 3.500000e-06 1.248000e-01 1
3 0 4 1.743508e+03 0.000000e+00 1.000000e+00 3.500000e-06 1.248000e-01 1
4 0 4 1.760103e+03 0.000000e+00 1.000000e+00 3.500000e-06 1.248000e-01 1
5 0 4 1.746886e+03 0.000000e+00 1.000000e+00 3.500000e-06 1.248000e-01 1
6 0 4 1.753007e+03 0.000000e+00 1.000000e+00 3.500000e-06 1.248000e-01 1
7 0 4 1.757357e+03 0.000000e+00 1.000000e+00 3.500000e-06 1.248000e-01 1
0 1 4 1.761645e+03 0.000000e+00 1.000000e+00 3.500000e-06 1.248000e-01 1
1 1 4 1.793141e+03 0.000000e+00 1.000000e+00 3.500000e-06 1.248000e-01 1
2 1 4 1.768088e+03 0.000000e+00 1.000000e+00 3.500000e-06 1.248000e-01 1
3 1 4 1.769220e+03 0.000000e+00 1.000000e+00 3.500000e-06 1.248000e-01 1
4 1 4 1.764961e+03 0.000000e+00 1.000000e+00 3.500000e-06 1.248000e-01 1
5 1 4 1.756999e+03 0.000000e+00 1.000000e+00 3.500000e-06 1.248000e-01 1
6 1 4 1.752373e+03 0.000000e+00 1.000000e+00 3.500000e-06 1.248000e-01 1
7 1 4 1.773194e+03 0.000000e+00 1.000000e+00 3.500000e-06 1.248000e-01 1
0 2 4 1.752929e+03 0.000000e+00 1.000000e+00 3.500000e-06 1.248000e-01 1
1 2 4 1.769139e+03 0.000000e+00 1.000000e+00 3.500000e-06 1.248000e-01 1
2 2 4 1.761553e+03 0.000000e+00 1.000000e+00 3.500000e-06 1.248000e-01 1
3 2 4 1.753855e+03 0.000000e+00 1.000000e+00 3.500000e-06 1.248000e-01 1
4 2 4 1.766739e+03 0.000000e+00 1.000000e+00 3.500000e-06 1.248000e-01 1
5 2 4 1.761043e+03 0.000000e+00 1.000000e+00 3.500000e-06 1.248000e-01 1
6 2 4 1.745136e+03 0.000000e+00 1.000000e+00 3.500000e-06 1.248000e-01 1
7 2 4 1.752615e+03 0.000000e+00 1.000000e+00 3.500000e-06 1.248000e-01 1
0 3 4 1.753936e+03 0.000000e+00 1.000000e+00 3.500000e-06 1.248000e-01 1
1 3 4 1.761963e+03 0.000000e+00 1.000000e+00 3.500000e-06 1.248000e-01 1
2 3 4 1.767129e+03 0.000000e+00 1.000000e+00 3.500000e-06 1.248000e-01 1
3 3 4 1.761471e+03 0.000000e+00 1.000000e+00 3.500000e-06 1.248000e-01 1
4 3 4 1.749523e+03 0.000000e+00 1.000000e+00 3.500000e-06 1.248000e-01 1
5 3 4 1.751424e+03 0.000000e+00 1.000000e+00 3.500000e-06 1.248000e-01 1
6 3 4 1.758321e+03 0.000000e+00 1.000000e+00 3.500000e-06 1.248000e-01 1
7 3 4 1.732930e+03 0.000000e+00 1.000000e+00 3.500000e-06 1.248000e-01 1
0 4 4 1.766265e+03 0.000000e+00 1.000000e+00 3.500000e-06 1.248000e-01 1
1 4 4 1.754002e+03 0.000000e+00 1.000000e+00 3.500000e-06 1.248000e-01 1
2 4 4 1.744839e+03 0.000000e+00 1.000000e+00 3.500000e-06 1.248000e-01 1
3 4 4 1.748218e+03 0.000000e+00 1.000000e+00 3.500000e-06 1.248000e-01 1
4 4 4 1.750543e+03 0.000000e+00 1.000000e+00 3.500000e-06 1.248000e-01 1
5 4 4 1.756160e+03 0.000000e+00 1.000000e+00 3.500000e-06 1.248000e-01 1
6 4 4 1.786465e+03 0.000000e+00 1.000000e+00 3.500000e-06 1.248000e-01 1
7 4 4 1.751702e+03 0.000000e+00 1.000000e+00 3.500000e-06 1.248000e-01 1
0 5 4 1.764519e+03 0.000000e+00 1.000000e+00 3.500000e-06 1.248000e-01 1
1 5 4 1.755549e+03 0.000000e+00 1.000000e+00 3.500000e-06 1.248000e-01 1
2 5 4 1.755468e+03 0.000000e+00 1.000000e+00 3.500000e-06 1.248000e-01 1
3 5 4 1.756904e+03 0.000000e+00 1.000000e+00 3.500000e-06 1.248000e-01 1
4 5 4 1.754287e+03 0.000000e+00 1.000000e+00 3.500000e-06 1.248000e-01 1
5 5 4 1.775107e+03 0.000000e+00 1.000000e+00 3.500000e-06 1.248000e-01 1
6 5 4 1.780388e+03 0.000000e+00 1.000000e+00 3.500000e-06 1.248000e-01 1
7 5 4 1.772242e+03 0.000000e+00 1.000000e+00 3.500000e-06 1.248000e-01 1
0 6 4 1.764735e+03 0.000000e+00 1.000000e+00 3.500000e-06 1.248000e-01 1
1 6 4 1.759919e+03 0.000000e+00 1.000000e+00 3.500000e-06 1.248000e-01 1
2 6 4 1.746661e+03 0.000000e+00 1.000000e+00 3.500000e-06 1.248000e-01 1
3 6 4 1.753437e+03 0.000000e+00 1.000000e+00 3.500000e-06 1.248000e-01 1
4 6 4 1.755485e+03 0.000000e+00 1.000000e+00 3.500000e-06 1.248000e-01 1
5 6 4 1.761109e+03 0.000000e+00 1.000000e+00 3.500000e-06 1.248000e-01 1
6 6 4 1.768159e+03 0.000000e+00 1.000000e+00 3.500000e-06 1.248000e-01 1
7 6 4 1.750506e+03 0.000000e+00 1.000000e+00 3.500000e-06 1.248000e-01 1
0 7 4 1.758555e+03 0.000000e+00 1.000000e+00 3.500000e-06 1.248000e-01 1
1 7 4 1.776169e+03 0.000000e+00 1.000000e+00 3.500000e-06 1.248000e-01 1
2 7 4 1.751281e+03 0.000000e+00 1.000000e+00 3.500000e-06 1.248000e-01 1
3 7 4 1.753788e+03 0.000000e+00 1.000000e+00 3.500000e-06 1.248000e-01 1
4 7 4 1.753868e+03 0.000000e+00 1.000000e+00 3.500000e-06 1.248000e-01 1
5 7 4 1.758400e+03 0.000000e+00 1.000000e+00 3.500000e-06 1.248000e-01 1
6 7 4 1.749274e+03 0.000000e+00 1.000000e+00 3.500000e-06 1.248000e-01 1
7 7 4 1.758491e+03 0.000000e+00 1.000000e+00 3.500000e-06 1.248000e-01 1
0 0 5 1.761352e+03 0.000000e+00 1.000000e+00 3.500000e-06 1.248000e-01 1
1 0 5 1.763300e+03 0.000000e+00 1.000000e+00 3.500000e-06 1.248000e-01 1
2 0 5 1.766800e+03 0.000000e+00 1.000000e+00 3.500000e-06 1.248000e-01 1
3 0 5 1.761470e+03 0.000000e+00 1.000000e+00 3.500000e-06 1.248000e-01 1
4 0 5 1.751034e+03 0.000000e+00 1.000000e+00 3.500000e-06 1.248000e-01 1
5 0 5 1.752546e+03 0.000000e+00 1.000000e+00 3.500000e-06 1.248000e-01 1
6 0 5 1.759555e+03 0.000000e+00 1.000000e+00 3.500000e-06 1.248000e-01 1
7 0 5 1.765535e+03 0.000000e+00 1.000000e+00 3.500000e-06 1.248000e-01 1
0 1 5 1.755660e+03 0.000000e+00 1.000000e+00 3.500000e-06 1.248000e-01 1
1 1 5 1.769023e+03 0.000000e+00 1.000000e+00 3.500000e-06 1.248000e-01 1
2 1 5 1.772846e+03 0.000000e+00 1.000000e+00 3.500000e-06 1.248000e-01 1
3 1 5 1.743984e+03 0.000000e+00 1.000000e+00 3.500000e-06 1.248000e-01 1
4 1 5 1.757185e+03 0.000000e+00 1.000000e+00 3.500000e-06 1.248000e-01 1
5 1 5 1.763825e+03 0.000000e+00 1.000000e+00 3.500000e-06 1.248000e-01 1
6 1 5 1.761909e+03 0.000000e+00 1.000000e+00 3.500000e-06 1.248000e-01 1
7 1 5 1.740862e+03 0.000000e+00 1.000000e+00 3.500000e-06 1.248000e-01 1
0 2 5 1.758554e+03 0.000000e+00 1.000000e+00 3.500000e-06 1.248000e-01 1
1 2 5 1.767505e+03 0.000000e+00 1.000000e+00 3.500000e-06 1.248000e-01 1
2 2 5 1.765511e+03 0.000000e+00 1.000000e+00 3.500000e-06 1.248000e-01 1
3 2 5 1.765206e+03 0.000000e+00 1.000000e+00 3.500000e-06 1.248000e-01 1
4 2 5 1.752427e+03 0.000000e+00 1.000000e+00 3.500000e-06 1.248000e-01 1
5 2 5 1.755212e+03 0.000000e+00 1.000000e+00 3.500000e-06 1.248000e-01 1
6 2 5 1.784259e+03 0.000000e+00 1.000000e+00 3.500000e-06 1.248000e-01 1
7 2 5 1.772118e+03 0.000000e+00 1.000000e+00 3.500000e-06 1.248000e-01 1
0 3 5 1.754679e+03 0.000000e+00 1.000000e+00 3.500000e-06 1.248000e-01 1
1 3 5 1.759217e+03 0.000000e+00 1.000000e+00 3.500000e-06 1.248000e-01 1
2 3 5 1.736826e+03 0.000000e+00 1.000000e+00 3.500000e-06 1.248000e-01 1
3 3 5 1.753575e+03 0.000000e+00 1.000000e+00 3.500000e-06 1.248000e-01 1
4 3 5 1.738079e+03 0.000000e+00 1.000000e+00 3.500000e-06 1.248000e-01 1
5 3 5 1.757610e+03 0.000000e+00 1.000000e+00 3.500000e-06 1.248000e-01 1
6 3 5 1.745458e+03 0.000000e+00 1.000000e+00 3.500000e-06 1.248000e-01 1
7 3 5 1.767493e+03 0.000000e+00 1.000000e+00 3.500000e-06 1.248000e-01 1
0 4 5 1.783062e+03 0.000000e+00 1.000000e+00 3.500000e-06 1.248000e-01 1
1 4 5 1.749252e+03 0.000000e+00 1.000000e+00 3.500000e-06 1.248000e-01 1
2 4 5 1.734716e+03 0.000000e+00 1.000000e+00 3.500000e-06 1.248000e-01 1
3 4 5 1.759294e+03 0.000000e+00 1.000000e+00 3.500000e-06 1.248000e-01 1
4 4 5 1.756602e+03 0.000000e+00 1.000000e+00 3.500000e-06 1.248000e-01 1
5 4 5 1.744194e+03 0.000000e+00 1.000000e+00 3.500000e-06 1.248000e-01 1
6 4 5 1.774488e+03 0.000000e+00 1.000000e+00 3.500000e-06 1.248000e-01 1
7 4 5 1.761849e+03 0.000000e+00 1.000000e+00 3.500000e-06 1.248000e-01 1
0 5 5 1.763141e+03 0.000000e+00 1.000000e+00 3.500000e-06 1.248000e-01 1
1 5 5 1.749662e+03 0.000000e+00 1.000000e+00 3.500000e-06 1.248000e-01 1
2 5 5 1.735388e+03 0.000000e+00 1.000000e+00 3.500000e-06 1.248000e-01 1
3 5 5 1.750678e+03 0.000000e+00 1.000000e+00 3.500000e-06 1.248000e-01 1
4 5 5 1.742090e+03 0.000000e+00 1.000000e+00 3.500000e-06 1.248000e-01 1
5 5 5 1.767539e+03 0.000000e+00 1.000000e+00 3.500000e-06 1.248000e-01 1
6 5 5 1.769506e+03 0.000000e+00 1.000000e+00 3.500000e-06 1.248000e-01 1
7 5 5 1.758315e+03 0.000000e+00 1.000000e+00 3.500000e-06 1.248000e-01 1
0 6 5 1.770189e+03 0.000000e+00 1.000000e+00 3.500000e-06 1.248000e-01 1
1 6 5 1.764746e+03 0.000000e+00 1.000000e+00 3.500000e-06 1.248000e-01 1
2 6 5 1.752417e+03 0.000000e+00 1.000000e+00 3.500000e-06 1.248000e-01 1
3 6 5 1.755628e+03 0.000000e+00 1.000000e+00 3.500000e-06 1.248000e-01 1
4 6 5 1.745834e+03 0.000000e+00 1.000000e+00 3.500000e-06 1.248000e-01 1
5 6 5 1.755924e+03 0.000000e+00 1.000000e+00 3.500000e-06 1.248000e-01 1
6 6 5 1.756135e+03 0.000000e+00 1.000000e+00 3.500000e-06 1.248000e-01 1
7 6 5 1.757657e+03 0.000000e+00 1.000000e+00 3.500000e-06 1.248000e-01 1
0 7 5 1.764414e+03 0.000000e+00 1.000000e+00 3.500000e-06 1.248000e-01 1
1 7 5 1.754073e+03 0.000000e+00 1.000000e+00 3.500000e-06 1.248000e-01 1
2 7 5 1.761531e+03 0.000000e+00 1.000000e+00 3.500000e-06 1.248000e-01 1
3 7 5 1.752717e+03 0.000000e+00 1.000000e+00 3.500000e-06 1.248000e-01 1
4 7 5 1.750775e+03 0.000000e+00 1.000000e+00 3.500000e-06 1.248000e-01 1
5 7 5 1.767057e+03 0.000000e+00 1.000000e+00 3.500000e-06 1.248000e-01 1
6 7 5 1.757033e+03 0.000000e+00 1.000000e+00 3.500000e-06 1.248000e-01 1
7 7 5 1.747562e+03 0.000000e+00 1.000000e+00 3.500000e-06 1.248000e-01 1
0 0 6 1.763094e+03 0.000000e+00 1.000000e+00 3.500000e-06 1.248000e-01 1
1 0 6 1.765551e+03 0.000000e+00 1.000000e+00 3.500000e-06 1.248000e-01 1
2 0 6 1.758262e+03 0.000000e+00 1.000000e+00 3.500000e-06 1.248000e-01 1
3 0 6 1.761188e+03 0.000000e+00 1.000000e+00 3.500000e-06 1.248000e-01 1
4 0 6 1.766160e+03 0.000000e+00 1.000000e+00 3.500000e-06 1.248000e-01 1
5 0 6 1.758641e+03 0.000000e+00 1.000000e+00 3.500000e-06 1.248000e-01 1
6 0 6 1.762548e+03 0.000000e+00 1.000000e+00 3.500000e-06 1.248000e-01 1
7 0 6 1.753725e+03 0.000000e+00 1.000000e+00 3.500000e-06 1.248000e-01 1
0 1 6 1.757341e+03 0.000000e+00 1.000000e+00 3.500000e-06 1.248000e-01 1
1 1 6 1.759796e+03 0.000000e+00 1.000000e+00 3.500000e-06 1.248000e-01 1
2 1 6 1.765953e+03 0.000000e+00 1.000000e+00 3.500000e-06 1.248000e-01 1
3 1 6 1.757845e+03 0.000000e+00 1.000000e+00 3.500000e-06 1.248000e-01 1
4 1 6 1.757619e+03 0.000000e+00 1.000000e+00 3.500000e-06 1.248000e-01 1
5 1 6 1.772770e+03 0.000000e+00 1.000000e+00 3.500000e-06 1.248000e-01 1
6 1 6 1.770030e+03 0.000000e+00 1.000000e+00 3.500000e-06 1.248000e-01 1
7 1 6 1.747205e+03 0.000000e+00 1.000000e+00 3.500000e-06 1.248000e-01 1
0 2 6 1.781597e+03 0.000000e+00 1.000000e+00 3.500000e-06 1.248000e-01 1
1 2 6 1.770702e+03 0.000000e+00 1.000000e+00 3.500000e-06 1.248000e-01 1
2 2 6 1.763786e+03 0.000000e+00 1.000000e+00 3.500000e-06 1.248000e-01 1
3 2 6 1.750974e+03 0.000000e+00 1.000000e+00 3.500000e-06 1.248000e-01 1
4 2 6 1.752615e+03 0.000000e+00 1.000000e+00 3.500000e-06 1.248000e-01 1
5 2 6 1.753897e+03 0.000000e+00 1.000000e+00 3.500000e-06 1.248000e-01 1
6 2 6 1.767192e+03 0.000000e+00 1.000000e+00 3.500000e-06 1.248000e-01 1
7 2 6 1.757028e+03 0.000000e+00 1.000000e+00 3.500000e-06 1.248000e-01 1
0 3 6 1.761868e+03 0.000000e+00 1.000000e+00 3.500000e-06 1.248000e-01 1