LAMMPS (31 Mar 2017)
Lattice spacing in x,y,z = 3.52 3.52 3.52
Created orthogonal box = (0 0 0) to (56.32 56.32 56.32)
  1 by 1 by 1 MPI processor grid
Created 16384 atoms
16384 atoms in group Ni
Setting atom values ...
  5452 settings made for type/fraction
10932 atoms in group Ni
Setting atom values ...
  5438 settings made for type/fraction
5494 atoms in group Ni
5452 atoms in group Fe
5438 atoms in group Cr

Flag read: 7 -> 7
Friction evaluation: ON
Random evaluation: ON
FDM grid solving: ON


Model read: 4 -> 4
PRL 120, 185501 (2018)

Neighbor list info ...
  update every 1 steps, delay 10 steps, check yes
  max neighbors/atom: 2000, page size: 100000
  master list distance cutoff = 7.6
  ghost atom cutoff = 7.6
  binsize = 3.8, bins = 15 15 15
  2 neighbor lists, perpetual/occasional/extra = 2 0 0
  (1) pair eam/alloy, perpetual, half/full from (2)
      attributes: half, newton on
      pair build: halffull/newton
      stencil: none
      bin: none
  (2) fix eph, perpetual
      attributes: full, newton on
      pair build: full/bin/atomonly
      stencil: full/bin/3d
      bin: standard
Setting up Verlet run ...
  Unit style    : metal
  Current step  : 0
  Time step     : 0.0001
Per MPI rank memory allocation (min/avg/max) = 26.61 | 26.61 | 26.61 Mbytes
Step Time Temp Press PotEng KinEng TotEng 
       0            0          600    10136.848   -68787.097    1270.6014   -67516.496 
Loop time of 2.14577e-06 on 1 procs for 0 steps with 16384 atoms

186.4% CPU use with 1 MPI tasks x no OpenMP threads

MPI task timing breakdown:
Section |  min time  |  avg time  |  max time  |%varavg| %total
---------------------------------------------------------------
Pair    | 0          | 0          | 0          |   0.0 |  0.00
Neigh   | 0          | 0          | 0          |   0.0 |  0.00
Comm    | 0          | 0          | 0          |   0.0 |  0.00
Output  | 0          | 0          | 0          |   0.0 |  0.00
Modify  | 0          | 0          | 0          |   0.0 |  0.00
Other   |            | 2.146e-06  |            |       |100.00

Nlocal:    16384 ave 16384 max 16384 min
Histogram: 1 0 0 0 0 0 0 0 0 0
Nghost:    18077 ave 18077 max 18077 min
Histogram: 1 0 0 0 0 0 0 0 0 0
Neighs:    1.44179e+06 ave 1.44179e+06 max 1.44179e+06 min
Histogram: 1 0 0 0 0 0 0 0 0 0
FullNghs:  2.88358e+06 ave 2.88358e+06 max 2.88358e+06 min
Histogram: 1 0 0 0 0 0 0 0 0 0

Total # of neighbors = 2883584
Ave neighs/atom = 176
Neighbor list builds = 0
Dangerous builds = 0
Setting up Verlet run ...
  Unit style    : metal
  Current step  : 0
  Time step     : 0.0001
Per MPI rank memory allocation (min/avg/max) = 26.61 | 26.61 | 26.61 Mbytes
Step Time Temp Press PotEng KinEng TotEng 
       0            0          600    10136.848   -68787.097    1270.6014   -67516.496 
    1000          0.1    362.54546    18123.889   -68284.852    767.75127   -67517.101 
    2000          0.2    332.15629     18633.72   -68219.174    703.39707   -67515.777 
    3000          0.3    325.22319    19237.241   -68200.644    688.71506   -67511.929 
    4000          0.4    320.87726    19359.636   -68185.278    679.51182   -67505.767 
    5000          0.5    325.92779    19512.884   -68188.773    690.20716   -67498.566 
    6000          0.6    328.02435    19560.758   -68185.547    694.64698     -67490.9 
    7000          0.7    326.30442    19948.817    -68172.95    691.00474   -67481.945 
    8000          0.8    330.04009    19596.054   -68172.067    698.91566   -67473.151 
    9000          0.9    332.83047    19811.494   -68170.198    704.82475   -67465.374 
   10000            1    337.13491    19907.139   -68168.626    713.94014   -67454.686 
Loop time of 9037.15 on 1 procs for 10000 steps with 16384 atoms

Performance: 0.010 ns/day, 2510.320 hours/ns, 1.107 timesteps/s
99.8% CPU use with 1 MPI tasks x no OpenMP threads

MPI task timing breakdown:
Section |  min time  |  avg time  |  max time  |%varavg| %total
---------------------------------------------------------------
Pair    | 423.24     | 423.24     | 423.24     |   0.0 |  4.68
Neigh   | 0          | 0          | 0          |   0.0 |  0.00
Comm    | 3.4469     | 3.4469     | 3.4469     |   0.0 |  0.04
Output  | 0.00084901 | 0.00084901 | 0.00084901 |   0.0 |  0.00
Modify  | 8609.5     | 8609.5     | 8609.5     |   0.0 | 95.27
Other   |            | 0.9817     |            |       |  0.01

Nlocal:    16384 ave 16384 max 16384 min
Histogram: 1 0 0 0 0 0 0 0 0 0
Nghost:    18077 ave 18077 max 18077 min
Histogram: 1 0 0 0 0 0 0 0 0 0
Neighs:    1.44179e+06 ave 1.44179e+06 max 1.44179e+06 min
Histogram: 1 0 0 0 0 0 0 0 0 0
FullNghs:  2.88358e+06 ave 2.88358e+06 max 2.88358e+06 min
Histogram: 1 0 0 0 0 0 0 0 0 0

Total # of neighbors = 2883584
Ave neighs/atom = 176
Neighbor list builds = 0
Dangerous builds = 0
Total wall time: 2:30:45
