# A comment
#
#
7 8 9 1
0.000000e+00 2.816000e+01
0.000000e+00 2.816000e+01
0.000000e+00 2.816000e+01
0 0 0 1.720299e+03 0.000000e+00 1.000000e+00 3.500000e-06 1.248000e-01 1
1 0 0 1.714580e+03 0.000000e+00 1.000000e+00 3.500000e-06 1.248000e-01 1
2 0 0 1.714301e+03 0.000000e+00 1.000000e+00 3.500000e-06 1.248000e-01 1
3 0 0 1.711962e+03 0.000000e+00 1.000000e+00 3.500000e-06 1.248000e-01 1
4 0 0 1.706615e+03 0.000000e+00 1.000000e+00 3.500000e-06 1.248000e-01 1
5 0 0 1.712602e+03 0.000000e+00 1.000000e+00 3.500000e-06 1.248000e-01 1
6 0 0 1.698021e+03 0.000000e+00 1.000000e+00 3.500000e-06 1.248000e-01 1
0 1 0 1.723180e+03 0.000000e+00 1.000000e+00 3.500000e-06 1.248000e-01 1
1 1 0 1.717055e+03 0.000000e+00 1.000000e+00 3.500000e-06 1.248000e-01 1
2 1 0 1.698591e+03 0.000000e+00 1.000000e+00 3.500000e-06 1.248000e-01 1
3 1 0 1.710592e+03 0.000000e+00 1.000000e+00 3.500000e-06 1.248000e-01 1
4 1 0 1.697032e+03 0.000000e+00 1.000000e+00 3.500000e-06 1.248000e-01 1
5 1 0 1.713114e+03 0.000000e+00 1.000000e+00 3.500000e-06 1.248000e-01 1
6 1 0 1.715427e+03 0.000000e+00 1.000000e+00 3.500000e-06 1.248000e-01 1
0 2 0 1.727241e+03 0.000000e+00 1.000000e+00 3.500000e-06 1.248000e-01 1
1 2 0 1.727648e+03 0.000000e+00 1.000000e+00 3.500000e-06 1.248000e-01 1
2 2 0 1.713200e+03 0.000000e+00 1.000000e+00 3.500000e-06 1.248000e-01 1
3 2 0 1.710667e+03 0.000000e+00 1.000000e+00 3.500000e-06 1.248000e-01 1
4 2 0 1.709292e+03 0.000000e+00 1.000000e+00 3.500000e-06 1.248000e-01 1
5 2 0 1.723537e+03 0.000000e+00 1.000000e+00 3.500000e-06 1.248000e-01 1
6 2 0 1.721710e+03 0.000000e+00 1.000000e+00 3.500000e-06 1.248000e-01 1
0 3 0 1.730735e+03 0.000000e+00 1.000000e+00 3.500000e-06 1.248000e-01 1
1 3 0 1.739983e+03 0.000000e+00 1.000000e+00 3.500000e-06 1.248000e-01 1
2 3 0 1.712607e+03 0.000000e+00 1.000000e+00 3.500000e-06 1.248000e-01 1
3 3 0 1.715628e+03 0.000000e+00 1.000000e+00 3.500000e-06 1.248000e-01 1
4 3 0 1.700000e+03 0.000000e+00 1.000000e+00 3.500000e-06 1.248000e-01 1
5 3 0 1.709813e+03 0.000000e+00 1.000000e+00 3.500000e-06 1.248000e-01 1
6 3 0 1.718882e+03 0.000000e+00 1.000000e+00 3.500000e-06 1.248000e-01 1
0 4 0 1.731224e+03 0.000000e+00 1.000000e+00 3.500000e-06 1.248000e-01 1
1 4 0 1.740588e+03 0.000000e+00 1.000000e+00 3.500000e-06 1.248000e-01 1
2 4 0 1.728723e+03 0.000000e+00 1.000000e+00 3.500000e-06 1.248000e-01 1
3 4 0 1.716636e+03 0.000000e+00 1.000000e+00 3.500000e-06 1.248000e-01 1
4 4 0 1.727212e+03 0.000000e+00 1.000000e+00 3.500000e-06 1.248000e-01 1
5 4 0 1.724498e+03 0.000000e+00 1.000000e+00 3.500000e-06 1.248000e-01 1
6 4 0 1.721559e+03 0.000000e+00 1.000000e+00 3.500000e-06 1.248000e-01 1
0 5 0 1.711631e+03 0.000000e+00 1.000000e+00 3.500000e-06 1.248000e-01 1
1 5 0 1.716049e+03 0.000000e+00 1.000000e+00 3.500000e-06 1.248000e-01 1
2 5 0 1.729655e+03 0.000000e+00 1.000000e+00 3.500000e-06 1.248000e-01 1
3 5 0 1.719350e+03 0.000000e+00 1.000000e+00 3.500000e-06 1.248000e-01 1
4 5 0 1.714339e+03 0.000000e+00 1.000000e+00 3.500000e-06 1.248000e-01 1
5 5 0 1.725907e+03 0.000000e+00 1.000000e+00 3.500000e-06 1.248000e-01 1
6 5 0 1.730380e+03 0.000000e+00 1.000000e+00 3.500000e-06 1.248000e-01 1
0 6 0 1.718488e+03 0.000000e+00 1.000000e+00 3.500000e-06 1.248000e-01 1
1 6 0 1.730218e+03 0.000000e+00 1.000000e+00 3.500000e-06 1.248000e-01 1
2 6 0 1.723183e+03 0.000000e+00 1.000000e+00 3.500000e-06 1.248000e-01 1
3 6 0 1.724390e+03 0.000000e+00 1.000000e+00 3.500000e-06 1.248000e-01 1
4 6 0 1.715411e+03 0.000000e+00 1.000000e+00 3.500000e-06 1.248000e-01 1
5 6 0 1.718909e+03 0.000000e+00 1.000000e+00 3.500000e-06 1.248000e-01 1
6 6 0 1.726622e+03 0.000000e+00 1.000000e+00 3.500000e-06 1.248000e-01 1
0 7 0 1.725013e+03 0.000000e+00 1.000000e+00 3.500000e-06 1.248000e-01 1
1 7 0 1.712779e+03 0.000000e+00 1.000000e+00 3.500000e-06 1.248000e-01 1
2 7 0 1.713545e+03 0.000000e+00 1.000000e+00 3.500000e-06 1.248000e-01 1
3 7 0 1.718025e+03 0.000000e+00 1.000000e+00 3.500000e-06 1.248000e-01 1
4 7 0 1.724951e+03 0.000000e+00 1.000000e+00 3.500000e-06 1.248000e-01 1
5 7 0 1.723408e+03 0.000000e+00 1.000000e+00 3.500000e-06 1.248000e-01 1
6 7 0 1.723615e+03 0.000000e+00 1.000000e+00 3.500000e-06 1.248000e-01 1
0 0 1 1.723045e+03 0.000000e+00 1.000000e+00 3.500000e-06 1.248000e-01 1
1 0 1 1.734775e+03 0.000000e+00 1.000000e+00 3.500000e-06 1.248000e-01 1
2 0 1 1.712559e+03 0.000000e+00 1.000000e+00 3.500000e-06 1.248000e-01 1
3 0 1 1.724628e+03 0.000000e+00 1.000000e+00 3.500000e-06 1.248000e-01 1
4 0 1 1.708644e+03 0.000000e+00 1.000000e+00 3.500000e-06 1.248000e-01 1
5 0 1 1.709390e+03 0.000000e+00 1.000000e+00 3.500000e-06 1.248000e-01 1
6 0 1 1.707862e+03 0.000000e+00 1.000000e+00 3.500000e-06 1.248000e-01 1
0 1 1 1.725218e+03 0.000000e+00 1.000000e+00 3.500000e-06 1.248000e-01 1
1 1 1 1.715753e+03 0.000000e+00 1.000000e+00 3.500000e-06 1.248000e-01 1
2 1 1 1.698000e+03 0.000000e+00 1.000000e+00 3.500000e-06 1.248000e-01 1
3 1 1 1.696107e+03 0.000000e+00 1.000000e+00 3.500000e-06 1.248000e-01 1
4 1 1 1.703012e+03 0.000000e+00 1.000000e+00 3.500000e-06 1.248000e-01 1
5 1 1 1.718854e+03 0.000000e+00 1.000000e+00 3.500000e-06 1.248000e-01 1
6 1 1 1.716920e+03 0.000000e+00 1.000000e+00 3.500000e-06 1.248000e-01 1
0 2 1 1.714199e+03 0.000000e+00 1.000000e+00 3.500000e-06 1.248000e-01 1
1 2 1 1.709698e+03 0.000000e+00 1.000000e+00 3.500000e-06 1.248000e-01 1
2 2 1 1.714518e+03 0.000000e+00 1.000000e+00 3.500000e-06 1.248000e-01 1
3 2 1 1.700997e+03 0.000000e+00 1.000000e+00 3.500000e-06 1.248000e-01 1
4 2 1 1.707139e+03 0.000000e+00 1.000000e+00 3.500000e-06 1.248000e-01 1
5 2 1 1.735845e+03 0.000000e+00 1.000000e+00 3.500000e-06 1.248000e-01 1
6 2 1 1.715609e+03 0.000000e+00 1.000000e+00 3.500000e-06 1.248000e-01 1
0 3 1 1.720431e+03 0.000000e+00 1.000000e+00 3.500000e-06 1.248000e-01 1
1 3 1 1.718085e+03 0.000000e+00 1.000000e+00 3.500000e-06 1.248000e-01 1
2 3 1 1.729112e+03 0.000000e+00 1.000000e+00 3.500000e-06 1.248000e-01 1
3 3 1 1.721256e+03 0.000000e+00 1.000000e+00 3.500000e-06 1.248000e-01 1
4 3 1 1.714022e+03 0.000000e+00 1.000000e+00 3.500000e-06 1.248000e-01 1
5 3 1 1.708182e+03 0.000000e+00 1.000000e+00 3.500000e-06 1.248000e-01 1
6 3 1 1.729151e+03 0.000000e+00 1.000000e+00 3.500000e-06 1.248000e-01 1
0 4 1 1.717791e+03 0.000000e+00 1.000000e+00 3.500000e-06 1.248000e-01 1
1 4 1 1.731625e+03 0.000000e+00 1.000000e+00 3.500000e-06 1.248000e-01 1
2 4 1 1.700831e+03 0.000000e+00 1.000000e+00 3.500000e-06 1.248000e-01 1
3 4 1 1.711445e+03 0.000000e+00 1.000000e+00 3.500000e-06 1.248000e-01 1
4 4 1 1.733057e+03 0.000000e+00 1.000000e+00 3.500000e-06 1.248000e-01 1
5 4 1 1.734624e+03 0.000000e+00 1.000000e+00 3.500000e-06 1.248000e-01 1
6 4 1 1.705707e+03 0.000000e+00 1.000000e+00 3.500000e-06 1.248000e-01 1
0 5 1 1.696900e+03 0.000000e+00 1.000000e+00 3.500000e-06 1.248000e-01 1
1 5 1 1.695236e+03 0.000000e+00 1.000000e+00 3.500000e-06 1.248000e-01 1
2 5 1 1.715646e+03 0.000000e+00 1.000000e+00 3.500000e-06 1.248000e-01 1
3 5 1 1.707605e+03 0.000000e+00 1.000000e+00 3.500000e-06 1.248000e-01 1
4 5 1 1.722001e+03 0.000000e+00 1.000000e+00 3.500000e-06 1.248000e-01 1
5 5 1 1.739945e+03 0.000000e+00 1.000000e+00 3.500000e-06 1.248000e-01 1
6 5 1 1.705565e+03 0.000000e+00 1.000000e+00 3.500000e-06 1.248000e-01 1
0 6 1 1.733275e+03 0.000000e+00 1.000000e+00 3.500000e-06 1.248000e-01 1
1 6 1 1.726244e+03 0.000000e+00 1.000000e+00 3.500000e-06 1.248000e-01 1
2 6 1 1.728860e+03 0.000000e+00 1.000000e+00 3.500000e-06 1.248000e-01 1
3 6 1 1.736854e+03 0.000000e+00 1.000000e+00 3.500000e-06 1.248000e-01 1
4 6 1 1.697227e+03 0.000000e+00 1.000000e+00 3.500000e-06 1.248000e-01 1
5 6 1 1.714709e+03 0.000000e+00 1.000000e+00 3.500000e-06 1.248000e-01 1
6 6 1 1.713674e+03 0.000000e+00 1.000000e+00 3.500000e-06 1.248000e-01 1
0 7 1 1.745678e+03 0.000000e+00 1.000000e+00 3.500000e-06 1.248000e-01 1
1 7 1 1.733606e+03 0.000000e+00 1.000000e+00 3.500000e-06 1.248000e-01 1
2 7 1 1.723922e+03 0.000000e+00 1.000000e+00 3.500000e-06 1.248000e-01 1
3 7 1 1.723467e+03 0.000000e+00 1.000000e+00 3.500000e-06 1.248000e-01 1
4 7 1 1.715348e+03 0.000000e+00 1.000000e+00 3.500000e-06 1.248000e-01 1
5 7 1 1.728934e+03 0.000000e+00 1.000000e+00 3.500000e-06 1.248000e-01 1
6 7 1 1.749882e+03 0.000000e+00 1.000000e+00 3.500000e-06 1.248000e-01 1
0 0 2 1.729872e+03 0.000000e+00 1.000000e+00 3.500000e-06 1.248000e-01 1
1 0 2 1.728025e+03 0.000000e+00 1.000000e+00 3.500000e-06 1.248000e-01 1
2 0 2 1.689775e+03 0.000000e+00 1.000000e+00 3.500000e-06 1.248000e-01 1
3 0 2 1.716664e+03 0.000000e+00 1.000000e+00 3.500000e-06 1.248000e-01 1
4 0 2 1.713449e+03 0.000000e+00 1.000000e+00 3.500000e-06 1.248000e-01 1
5 0 2 1.733686e+03 0.000000e+00 1.000000e+00 3.500000e-06 1.248000e-01 1
6 0 2 1.729980e+03 0.000000e+00 1.000000e+00 3.500000e-06 1.248000e-01 1
0 1 2 1.706406e+03 0.000000e+00 1.000000e+00 3.500000e-06 1.248000e-01 1
1 1 2 1.690942e+03 0.000000e+00 1.000000e+00 3.500000e-06 1.248000e-01 1
2 1 2 1.706872e+03 0.000000e+00 1.000000e+00 3.500000e-06 1.248000e-01 1
3 1 2 1.694817e+03 0.000000e+00 1.000000e+00 3.500000e-06 1.248000e-01 1
4 1 2 1.711685e+03 0.000000e+00 1.000000e+00 3.500000e-06 1.248000e-01 1
5 1 2 1.745996e+03 0.000000e+00 1.000000e+00 3.500000e-06 1.248000e-01 1
6 1 2 1.708731e+03 0.000000e+00 1.000000e+00 3.500000e-06 1.248000e-01 1
0 2 2 1.750229e+03 0.000000e+00 1.000000e+00 3.500000e-06 1.248000e-01 1
1 2 2 1.702707e+03 0.000000e+00 1.000000e+00 3.500000e-06 1.248000e-01 1
2 2 2 1.725173e+03 0.000000e+00 1.000000e+00 3.500000e-06 1.248000e-01 1
3 2 2 1.701800e+03 0.000000e+00 1.000000e+00 3.500000e-06 1.248000e-01 1
4 2 2 1.702377e+03 0.000000e+00 1.000000e+00 3.500000e-06 1.248000e-01 1
5 2 2 1.722524e+03 0.000000e+00 1.000000e+00 3.500000e-06 1.248000e-01 1
6 2 2 1.723233e+03 0.000000e+00 1.000000e+00 3.500000e-06 1.248000e-01 1
0 3 2 1.740819e+03 0.000000e+00 1.000000e+00 3.500000e-06 1.248000e-01 1
1 3 2 1.719929e+03 0.000000e+00 1.000000e+00 3.500000e-06 1.248000e-01 1
2 3 2 1.714850e+03 0.000000e+00 1.000000e+00 3.500000e-06 1.248000e-01 1
3 3 2 1.724478e+03 0.000000e+00 1.000000e+00 3.500000e-06 1.248000e-01 1
4 3 2 1.711364e+03 0.000000e+00 1.000000e+00 3.500000e-06 1.248000e-01 1
5 3 2 1.690376e+03 0.000000e+00 1.000000e+00 3.500000e-06 1.248000e-01 1
6 3 2 1.728183e+03 0.000000e+00 1.000000e+00 3.500000e-06 1.248000e-01 1
0 4 2 1.698361e+03 0.000000e+00 1.000000e+00 3.500000e-06 1.248000e-01 1
1 4 2 1.722049e+03 0.000000e+00 1.000000e+00 3.500000e-06 1.248000e-01 1
2 4 2 1.711078e+03 0.000000e+00 1.000000e+00 3.500000e-06 1.248000e-01 1
3 4 2 1.753749e+03 0.000000e+00 1.000000e+00 3.500000e-06 1.248000e-01 1
4 4 2 1.730109e+03 0.000000e+00 1.000000e+00 3.500000e-06 1.248000e-01 1
5 4 2 1.723881e+03 0.000000e+00 1.000000e+00 3.500000e-06 1.248000e-01 1
6 4 2 1.697272e+03 0.000000e+00 1.000000e+00 3.500000e-06 1.248000e-01 1
0 5 2 1.720448e+03 0.000000e+00 1.000000e+00 3.500000e-06 1.248000e-01 1
1 5 2 1.702457e+03 0.000000e+00 1.000000e+00 3.500000e-06 1.248000e-01 1
2 5 2 1.725253e+03 0.000000e+00 1.000000e+00 3.500000e-06 1.248000e-01 1
3 5 2 1.691672e+03 0.000000e+00 1.000000e+00 3.500000e-06 1.248000e-01 1
4 5 2 1.723980e+03 0.000000e+00 1.000000e+00 3.500000e-06 1.248000e-01 1
5 5 2 1.719756e+03 0.000000e+00 1.000000e+00 3.500000e-06 1.248000e-01 1
6 5 2 1.732703e+03 0.000000e+00 1.000000e+00 3.500000e-06 1.248000e-01 1
0 6 2 1.723102e+03 0.000000e+00 1.000000e+00 3.500000e-06 1.248000e-01 1
1 6 2 1.707192e+03 0.000000e+00 1.000000e+00 3.500000e-06 1.248000e-01 1
2 6 2 1.713826e+03 0.000000e+00 1.000000e+00 3.500000e-06 1.248000e-01 1
3 6 2 1.729677e+03 0.000000e+00 1.000000e+00 3.500000e-06 1.248000e-01 1
4 6 2 1.709942e+03 0.000000e+00 1.000000e+00 3.500000e-06 1.248000e-01 1
5 6 2 1.706189e+03 0.000000e+00 1.000000e+00 3.500000e-06 1.248000e-01 1
6 6 2 1.743443e+03 0.000000e+00 1.000000e+00 3.500000e-06 1.248000e-01 1
0 7 2 1.737878e+03 0.000000e+00 1.000000e+00 3.500000e-06 1.248000e-01 1
1 7 2 1.720280e+03 0.000000e+00 1.000000e+00 3.500000e-06 1.248000e-01 1
2 7 2 1.696064e+03 0.000000e+00 1.000000e+00 3.500000e-06 1.248000e-01 1
3 7 2 1.721880e+03 0.000000e+00 1.000000e+00 3.500000e-06 1.248000e-01 1
4 7 2 1.705232e+03 0.000000e+00 1.000000e+00 3.500000e-06 1.248000e-01 1
5 7 2 1.734514e+03 0.000000e+00 1.000000e+00 3.500000e-06 1.248000e-01 1
6 7 2 1.725240e+03 0.000000e+00 1.000000e+00 3.500000e-06 1.248000e-01 1
0 0 3 1.701635e+03 0.000000e+00 1.000000e+00 3.500000e-06 1.248000e-01 1
1 0 3 1.689570e+03 0.000000e+00 1.000000e+00 3.500000e-06 1.248000e-01 1
2 0 3 1.703475e+03 0.000000e+00 1.000000e+00 3.500000e-06 1.248000e-01 1
3 0 3 1.712252e+03 0.000000e+00 1.000000e+00 3.500000e-06 1.248000e-01 1
4 0 3 1.715412e+03 0.000000e+00 1.000000e+00 3.500000e-06 1.248000e-01 1
5 0 3 1.745874e+03 0.000000e+00 1.000000e+00 3.500000e-06 1.248000e-01 1
6 0 3 1.721139e+03 0.000000e+00 1.000000e+00 3.500000e-06 1.248000e-01 1
0 1 3 1.704691e+03 0.000000e+00 1.000000e+00 3.500000e-06 1.248000e-01 1
1 1 3 1.707841e+03 0.000000e+00 1.000000e+00 3.500000e-06 1.248000e-01 1
2 1 3 1.693617e+03 0.000000e+00 1.000000e+00 3.500000e-06 1.248000e-01 1
3 1 3 1.701748e+03 0.000000e+00 1.000000e+00 3.500000e-06 1.248000e-01 1
4 1 3 1.727362e+03 0.000000e+00 1.000000e+00 3.500000e-06 1.248000e-01 1
5 1 3 1.732892e+03 0.000000e+00 1.000000e+00 3.500000e-06 1.248000e-01 1
6 1 3 1.712929e+03 0.000000e+00 1.000000e+00 3.500000e-06 1.248000e-01 1
0 2 3 1.687264e+03 0.000000e+00 1.000000e+00 3.500000e-06 1.248000e-01 1
1 2 3 1.714980e+03 0.000000e+00 1.000000e+00 3.500000e-06 1.248000e-01 1
2 2 3 1.711970e+03 0.000000e+00 1.000000e+00 3.500000e-06 1.248000e-01 1
3 2 3 1.709479e+03 0.000000e+00 1.000000e+00 3.500000e-06 1.248000e-01 1
4 2 3 1.729540e+03 0.000000e+00 1.000000e+00 3.500000e-06 1.248000e-01 1
5 2 3 1.706605e+03 0.000000e+00 1.000000e+00 3.500000e-06 1.248000e-01 1
6 2 3 1.685616e+03 0.000000e+00 1.000000e+00 3.500000e-06 1.248000e-01 1
0 3 3 1.703127e+03 0.000000e+00 1.000000e+00 3.500000e-06 1.248000e-01 1
1 3 3 1.737473e+03 0.000000e+00 1.000000e+00 3.500000e-06 1.248000e-01 1
2 3 3 1.716105e+03 0.000000e+00 1.000000e+00 3.500000e-06 1.248000e-01 1
3 3 3 1.702649e+03 0.000000e+00 1.000000e+00 3.500000e-06 1.248000e-01 1
4 3 3 1.701036e+03 0.000000e+00 1.000000e+00 3.500000e-06 1.248000e-01 1
5 3 3 1.700440e+03 0.000000e+00 1.000000e+00 3.500000e-06 1.248000e-01 1
6 3 3 1.691505e+03 0.000000e+00 1.000000e+00 3.500000e-06 1.248000e-01 1
0 4 3 1.733060e+03 0.000000e+00 1.000000e+00 3.500000e-06 1.248000e-01 1
1 4 3 1.737502e+03 0.000000e+00 1.000000e+00 3.500000e-06 1.248000e-01 1
2 4 3 1.713712e+03 0.000000e+00 1.000000e+00 3.500000e-06 1.248000e-01 1
3 4 3 1.740504e+03 0.000000e+00 1.000000e+00 3.500000e-06 1.248000e-01 1
4 4 3 1.703000e+03 0.000000e+00 1.000000e+00 3.500000e-06 1.248000e-01 1
5 4 3 1.706612e+03 0.000000e+00 1.000000e+00 3.500000e-06 1.248000e-01 1
6 4 3 1.723094e+03 0.000000e+00 1.000000e+00 3.500000e-06 1.248000e-01 1
0 5 3 1.720314e+03 0.000000e+00 1.000000e+00 3.500000e-06 1.248000e-01 1
1 5 3 1.713113e+03 0.000000e+00 1.000000e+00 3.500000e-06 1.248000e-01 1
2 5 3 1.712720e+03 0.000000e+00 1.000000e+00 3.500000e-06 1.248000e-01 1
3 5 3 1.714389e+03 0.000000e+00 1.000000e+00 3.500000e-06 1.248000e-01 1
4 5 3 1.705694e+03 0.000000e+00 1.000000e+00 3.500000e-06 1.248000e-01 1
5 5 3 1.713846e+03 0.000000e+00 1.000000e+00 3.500000e-06 1.248000e-01 1
6 5 3 1.702986e+03 0.000000e+00 1.000000e+00 3.500000e-06 1.248000e-01 1
0 6 3 1.701335e+03 0.000000e+00 1.000000e+00 3.500000e-06 1.248000e-01 1
1 6 3 1.690196e+03 0.000000e+00 1.000000e+00 3.500000e-06 1.248000e-01 1
2 6 3 1.690708e+03 0.000000e+00 1.000000e+00 3.500000e-06 1.248000e-01 1
3 6 3 1.710443e+03 0.000000e+00 1.000000e+00 3.500000e-06 1.248000e-01 1
4 6 3 1.721089e+03 0.000000e+00 1.000000e+00 3.500000e-06 1.248000e-01 1
5 6 3 1.730290e+03 0.000000e+00 1.000000e+00 3.500000e-06 1.248000e-01 1
6 6 3 1.720446e+03 0.000000e+00 1.000000e+00 3.500000e-06 1.248000e-01 1
0 7 3 1.711855e+03 0.000000e+00 1.000000e+00 3.500000e-06 1.248000e-01 1
1 7 3 1.700992e+03 0.000000e+00 1.000000e+00 3.500000e-06 1.248000e-01 1
2 7 3 1.706522e+03 0.000000e+00 1.000000e+00 3.500000e-06 1.248000e-01 1
3 7 3 1.704884e+03 0.000000e+00 1.000000e+00 3.500000e-06 1.248000e-01 1
4 7 3 1.740543e+03 0.000000e+00 1.000000e+00 3.500000e-06 1.248000e-01 1
5 7 3 1.738026e+03 0.000000e+00 1.000000e+00 3.500000e-06 1.248000e-01 1
6 7 3 1.716664e+03 0.000000e+00 1.000000e+00 3.500000e-06 1.248000e-01 1
0 0 4 1.707912e+03 0.000000e+00 1.000000e+00 3.500000e-06 1.248000e-01 1
1 0 4 1.695944e+03 0.000000e+00 1.000000e+00 3.500000e-06 1.248000e-01 1
2 0 4 1.714563e+03 0.000000e+00 1.000000e+00 3.500000e-06 1.248000e-01 1
3 0 4 1.711608e+03 0.000000e+00 1.000000e+00 3.500000e-06 1.248000e-01 1
4 0 4 1.742872e+03 0.000000e+00 1.000000e+00 3.500000e-06 1.248000e-01 1
5 0 4 1.695192e+03 0.000000e+00 1.000000e+00 3.500000e-06 1.248000e-01 1
6 0 4 1.675893e+03 0.000000e+00 1.000000e+00 3.500000e-06 1.248000e-01 1
0 1 4 1.735774e+03 0.000000e+00 1.000000e+00 3.500000e-06 1.248000e-01 1
1 1 4 1.730601e+03 0.000000e+00 1.000000e+00 3.500000e-06 1.248000e-01 1
2 1 4 1.717488e+03 0.000000e+00 1.000000e+00 3.500000e-06 1.248000e-01 1
3 1 4 1.729926e+03 0.000000e+00 1.000000e+00 3.500000e-06 1.248000e-01 1
4 1 4 1.688317e+03 0.000000e+00 1.000000e+00 3.500000e-06 1.248000e-01 1
5 1 4 1.713435e+03 0.000000e+00 1.000000e+00 3.500000e-06 1.248000e-01 1
6 1 4 1.704757e+03 0.000000e+00 1.000000e+00 3.500000e-06 1.248000e-01 1
0 2 4 1.729549e+03 0.000000e+00 1.000000e+00 3.500000e-06 1.248000e-01 1
1 2 4 1.727100e+03 0.000000e+00 1.000000e+00 3.500000e-06 1.248000e-01 1
2 2 4 1.716744e+03 0.000000e+00 1.000000e+00 3.500000e-06 1.248000e-01 1
3 2 4 1.706182e+03 0.000000e+00 1.000000e+00 3.500000e-06 1.248000e-01 1
4 2 4 1.684828e+03 0.000000e+00 1.000000e+00 3.500000e-06 1.248000e-01 1
5 2 4 1.703534e+03 0.000000e+00 1.000000e+00 3.500000e-06 1.248000e-01 1
6 2 4 1.713066e+03 0.000000e+00 1.000000e+00 3.500000e-06 1.248000e-01 1
0 3 4 1.733700e+03 0.000000e+00 1.000000e+00 3.500000e-06 1.248000e-01 1
1 3 4 1.732835e+03 0.000000e+00 1.000000e+00 3.500000e-06 1.248000e-01 1
2 3 4 1.710822e+03 0.000000e+00 1.000000e+00 3.500000e-06 1.248000e-01 1
3 3 4 1.696994e+03 0.000000e+00 1.000000e+00 3.500000e-06 1.248000e-01 1
4 3 4 1.679633e+03 0.000000e+00 1.000000e+00 3.500000e-06 1.248000e-01 1
5 3 4 1.703527e+03 0.000000e+00 1.000000e+00 3.500000e-06 1.248000e-01 1
6 3 4 1.715854e+03 0.000000e+00 1.000000e+00 3.500000e-06 1.248000e-01 1
0 4 4 1.724737e+03 0.000000e+00 1.000000e+00 3.500000e-06 1.248000e-01 1
1 4 4 1.725970e+03 0.000000e+00 1.000000e+00 3.500000e-06 1.248000e-01 1
2 4 4 1.713236e+03 0.000000e+00 1.000000e+00 3.500000e-06 1.248000e-01 1
3 4 4 1.701811e+03 0.000000e+00 1.000000e+00 3.500000e-06 1.248000e-01 1
4 4 4 1.720580e+03 0.000000e+00 1.000000e+00 3.500000e-06 1.248000e-01 1
5 4 4 1.707788e+03 0.000000e+00 1.000000e+00 3.500000e-06 1.248000e-01 1
6 4 4 1.728493e+03 0.000000e+00 1.000000e+00 3.500000e-06 1.248000e-01 1
0 5 4 1.695815e+03 0.000000e+00 1.000000e+00 3.500000e-06 1.248000e-01 1
1 5 4 1.702677e+03 0.000000e+00 1.000000e+00 3.500000e-06 1.248000e-01 1
2 5 4 1.703845e+03 0.000000e+00 1.000000e+00 3.500000e-06 1.248000e-01 1
3 5 4 1.717918e+03 0.000000e+00 1.000000e+00 3.500000e-06 1.248000e-01 1
4 5 4 1.729316e+03 0.000000e+00 1.000000e+00 3.500000e-06 1.248000e-01 1
5 5 4 1.707474e+03 0.000000e+00 1.000000e+00 3.500000e-06 1.248000e-01 1
6 5 4 1.691295e+03 0.000000e+00 1.000000e+00 3.500000e-06 1.248000e-01 1
0 6 4 1.710242e+03 0.000000e+00 1.000000e+00 3.500000e-06 1.248000e-01 1
1 6 4 1.700669e+03 0.000000e+00 1.000000e+00 3.500000e-06 1.248000e-01 1
2 6 4 1.712720e+03 0.000000e+00 1.000000e+00 3.500000e-06 1.248000e-01 1
3 6 4 1.702089e+03 0.000000e+00 1.000000e+00 3.500000e-06 1.248000e-01 1
4 6 4 1.717067e+03 0.000000e+00 1.000000e+00 3.500000e-06 1.248000e-01 1
5 6 4 1.707780e+03 0.000000e+00 1.000000e+00 3.500000e-06 1.248000e-01 1
6 6 4 1.698285e+03 0.000000e+00 1.000000e+00 3.500000e-06 1.248000e-01 1
0 7 4 1.723437e+03 0.000000e+00 1.000000e+00 3.500000e-06 1.248000e-01 1
1 7 4 1.705970e+03 0.000000e+00 1.000000e+00 3.500000e-06 1.248000e-01 1
2 7 4 1.702122e+03 0.000000e+00 1.000000e+00 3.500000e-06 1.248000e-01 1
3 7 4 1.729363e+03 0.000000e+00 1.000000e+00 3.500000e-06 1.248000e-01 1
4 7 4 1.713841e+03 0.000000e+00 1.000000e+00 3.500000e-06 1.248000e-01 1
5 7 4 1.712807e+03 0.000000e+00 1.000000e+00 3.500000e-06 1.248000e-01 1
6 7 4 1.703121e+03 0.000000e+00 1.000000e+00 3.500000e-06 1.248000e-01 1
0 0 5 1.717591e+03 0.000000e+00 1.000000e+00 3.500000e-06 1.248000e-01 1
1 0 5 1.705731e+03 0.000000e+00 1.000000e+00 3.500000e-06 1.248000e-01 1
2 0 5 1.696258e+03 0.000000e+00 1.000000e+00 3.500000e-06 1.248000e-01 1
3 0 5 1.702530e+03 0.000000e+00 1.000000e+00 3.500000e-06 1.248000e-01 1
4 0 5 1.704878e+03 0.000000e+00 1.000000e+00 3.500000e-06 1.248000e-01 1
5 0 5 1.710587e+03 0.000000e+00 1.000000e+00 3.500000e-06 1.248000e-01 1
6 0 5 1.706259e+03 0.000000e+00 1.000000e+00 3.500000e-06 1.248000e-01 1
0 1 5 1.716850e+03 0.000000e+00 1.000000e+00 3.500000e-06 1.248000e-01 1
1 1 5 1.708689e+03 0.000000e+00 1.000000e+00 3.500000e-06 1.248000e-01 1
2 1 5 1.702464e+03 0.000000e+00 1.000000e+00 3.500000e-06 1.248000e-01 1
3 1 5 1.687951e+03 0.000000e+00 1.000000e+00 3.500000e-06 1.248000e-01 1
4 1 5 1.704663e+03 0.000000e+00 1.000000e+00 3.500000e-06 1.248000e-01 1
5 1 5 1.734453e+03 0.000000e+00 1.000000e+00 3.500000e-06 1.248000e-01 1
6 1 5 1.715600e+03 0.000000e+00 1.000000e+00 3.500000e-06 1.248000e-01 1
0 2 5 1.705155e+03 0.000000e+00 1.000000e+00 3.500000e-06 1.248000e-01 1
1 2 5 1.693501e+03 0.000000e+00 1.000000e+00 3.500000e-06 1.248000e-01 1
2 2 5 1.710047e+03 0.000000e+00 1.000000e+00 3.500000e-06 1.248000e-01 1
3 2 5 1.695963e+03 0.000000e+00 1.000000e+00 3.500000e-06 1.248000e-01 1
4 2 5 1.712437e+03 0.000000e+00 1.000000e+00 3.500000e-06 1.248000e-01 1
5 2 5 1.712143e+03 0.000000e+00 1.000000e+00 3.500000e-06 1.248000e-01 1
6 2 5 1.707605e+03 0.000000e+00 1.000000e+00 3.500000e-06 1.248000e-01 1
0 3 5 1.713383e+03 0.000000e+00 1.000000e+00 3.500000e-06 1.248000e-01 1
1 3 5 1.714216e+03 0.000000e+00 1.000000e+00 3.500000e-06 1.248000e-01 1
2 3 5 1.713962e+03 0.000000e+00 1.000000e+00 3.500000e-06 1.248000e-01 1
3 3 5 1.703919e+03 0.000000e+00 1.000000e+00 3.500000e-06 1.248000e-01 1
4 3 5 1.719602e+03 0.000000e+00 1.000000e+00 3.500000e-06 1.248000e-01 1
5 3 5 1.711136e+03 0.000000e+00 1.000000e+00 3.500000e-06 1.248000e-01 1
6 3 5 1.708944e+03 0.000000e+00 1.000000e+00 3.500000e-06 1.248000e-01 1
0 4 5 1.725446e+03 0.000000e+00 1.000000e+00 3.500000e-06 1.248000e-01 1
1 4 5 1.729740e+03 0.000000e+00 1.000000e+00 3.500000e-06 1.248000e-01 1
2 4 5 1.724156e+03 0.000000e+00 1.000000e+00 3.500000e-06 1.248000e-01 1
3 4 5 1.694353e+03 0.000000e+00 1.000000e+00 3.500000e-06 1.248000e-01 1
4 4 5 1.699093e+03 0.000000e+00 1.000000e+00 3.500000e-06 1.248000e-01 1
5 4 5 1.746146e+03 0.000000e+00 1.000000e+00 3.500000e-06 1.248000e-01 1
6 4 5 1.724925e+03 0.000000e+00 1.000000e+00 3.500000e-06 1.248000e-01 1
0 5 5 1.684506e+03 0.000000e+00 1.000000e+00 3.500000e-06 1.248000e-01 1
1 5 5 1.689145e+03 0.000000e+00 1.000000e+00 3.500000e-06 1.248000e-01 1
2 5 5 1.711087e+03 0.000000e+00 1.000000e+00 3.500000e-06 1.248000e-01 1
3 5 5 1.715185e+03 0.000000e+00 1.000000e+00 3.500000e-06 1.248000e-01 1
4 5 5 1.701618e+03 0.000000e+00 1.000000e+00 3.500000e-06 1.248000e-01 1
5 5 5 1.700617e+03 0.000000e+00 1.000000e+00 3.500000e-06 1.248000e-01 1
6 5 5 1.718110e+03 0.000000e+00 1.000000e+00 3.500000e-06 1.248000e-01 1
0 6 5 1.717563e+03 0.000000e+00 1.000000e+00 3.500000e-06 1.248000e-01 1
1 6 5 1.703591e+03 0.000000e+00 1.000000e+00 3.500000e-06 1.248000e-01 1
2 6 5 1.717758e+03 0.000000e+00 1.000000e+00 3.500000e-06 1.248000e-01 1
3 6 5 1.745424e+03 0.000000e+00 1.000000e+00 3.500000e-06 1.248000e-01 1
4 6 5 1.741862e+03 0.000000e+00 1.000000e+00 3.500000e-06 1.248000e-01 1
5 6 5 1.703814e+03 0.000000e+00 1.000000e+00 3.500000e-06 1.248000e-01 1
6 6 5 1.719063e+03 0.000000e+00 1.000000e+00 3.500000e-06 1.248000e-01 1
0 7 5 1.722838e+03 0.000000e+00 1.000000e+00 3.500000e-06 1.248000e-01 1
1 7 5 1.711761e+03 0.000000e+00 1.000000e+00 3.500000e-06 1.248000e-01 1
2 7 5 1.707802e+03 0.000000e+00 1.000000e+00 3.500000e-06 1.248000e-01 1
3 7 5 1.734187e+03 0.000000e+00 1.000000e+00 3.500000e-06 1.248000e-01 1
4 7 5 1.725698e+03 0.000000e+00 1.000000e+00 3.500000e-06 1.248000e-01 1
5 7 5 1.709022e+03 0.000000e+00 1.000000e+00 3.500000e-06 1.248000e-01 1
6 7 5 1.691667e+03 0.000000e+00 1.000000e+00 3.500000e-06 1.248000e-01 1
0 0 6 1.700160e+03 0.000000e+00 1.000000e+00 3.500000e-06 1.248000e-01 1
1 0 6 1.707171e+03 0.000000e+00 1.000000e+00 3.500000e-06 1.248000e-01 1
2 0 6 1.708950e+03 0.000000e+00 1.000000e+00 3.500000e-06 1.248000e-01 1
3 0 6 1.717880e+03 0.000000e+00 1.000000e+00 3.500000e-06 1.248000e-01 1
4 0 6 1.724867e+03 0.000000e+00 1.000000e+00 3.500000e-06 1.248000e-01 1
5 0 6 1.716099e+03 0.000000e+00 1.000000e+00 3.500000e-06 1.248000e-01 1
6 0 6 1.720631e+03 0.000000e+00 1.000000e+00 3.500000e-06 1.248000e-01 1
0 1 6 1.718073e+03 0.000000e+00 1.000000e+00 3.500000e-06 1.248000e-01 1
1 1 6 1.724810e+03 0.000000e+00 1.000000e+00 3.500000e-06 1.248000e-01 1
2 1 6 1.700994e+03 0.000000e+00 1.000000e+00 3.500000e-06 1.248000e-01 1
3 1 6 1.687889e+03 0.000000e+00 1.000000e+00 3.500000e-06 1.248000e-01 1
4 1 6 1.720627e+03 0.000000e+00 1.000000e+00 3.500000e-06 1.248000e-01 1
5 1 6 1.687995e+03 0.000000e+00 1.000000e+00 3.500000e-06 1.248000e-01 1
6 1 6 1.713366e+03 0.000000e+00 1.000000e+00 3.500000e-06 1.248000e-01 1
0 2 6 1.719604e+03 0.000000e+00 1.000000e+00 3.500000e-06 1.248000e-01 1
1 2 6 1.710459e+03 0.000000e+00 1.000000e+00 3.500000e-06 1.248000e-01 1
2 2 6 1.706488e+03 0.000000e+00 1.000000e+00 3.500000e-06 1.248000e-01 1
3 2 6 1.709384e+03 0.000000e+00 1.000000e+00 3.500000e-06 1.248000e-01 1
4 2 6 1.742384e+03 0.000000e+00 1.000000e+00 3.500000e-06 1.248000e-01 1
5 2 6 1.704906e+03 0.000000e+00 1.000000e+00 3.500000e-06 1.248000e-01 1
6 2 6 1.688667e+03 0.000000e+00 1.000000e+00 3.500000e-06 1.248000e-01 1
0 3 6 1.707224e+03 0.000000e+00 1.000000e+00 3.500000e-06 1.248000e-01 1
1 3 6 1.721479e+03 0.000000e+00 1.000000e+00 3.500000e-06 1.248000e-01 1
2 3 6 1.712712e+03 0.000000e+00 1.000000e+00 3.500000e-06 1.248000e-01 1
3 3 6 1.709402e+03 0.000000e+00 1.000000e+00 3.500000e-06 1.248000e-01 1
4 3 6 1.717025e+03 0.000000e+00 1.000000e+00 3.500000e-06 1.248000e-01 1
5 3 6 1.706722e+03 0.000000e+00 1.000000e+00 3.500000e-06 1.248000e-01 1
6 3 6 1.692333e+03 0.000000e+00 1.000000e+00 3.500000e-06 1.248000e-01 1
0 4 6 1.702484e+03 0.000000e+00 1.000000e+00 3.500000e-06 1.248000e-01 1
1 4 6 1.701705e+03 0.000000e+00 1.000000e+00 3.500000e-06 1.248000e-01 1
2 4 6 1.724655e+03 0.000000e+00 1.000000e+00 3.500000e-06 1.248000e-01 1
3 4 6 1.687379e+03 0.000000e+00 1.000000e+00 3.500000e-06 1.248000e-01 1
4 4 6 1.713678e+03 0.000000e+00 1.000000e+00 3.500000e-06 1.248000e-01 1
5 4 6 1.718811e+03 0.000000e+00 1.000000e+00 3.500000e-06 1.248000e-01 1
6 4 6 1.724585e+03 0.000000e+00 1.000000e+00 3.500000e-06 1.248000e-01 1
0 5 6 1.689698e+03 0.000000e+00 1.000000e+00 3.500000e-06 1.248000e-01 1
1 5 6 1.694371e+03 0.000000e+00 1.000000e+00 3.500000e-06 1.248000e-01 1
2 5 6 1.733787e+03 0.000000e+00 1.000000e+00 3.500000e-06 1.248000e-01 1
3 5 6 1.717976e+03 0.000000e+00 1.000000e+00 3.500000e-06 1.248000e-01 1
4 5 6 1.724966e+03 0.000000e+00 1.000000e+00 3.500000e-06 1.248000e-01 1
5 5 6 1.691179e+03 0.000000e+00 1.000000e+00 3.500000e-06 1.248000e-01 1
6 5 6 1.718725e+03 0.000000e+00 1.000000e+00 3.500000e-06 1.248000e-01 1
0 6 6 1.702888e+03 0.000000e+00 1.000000e+00 3.500000e-06 1.248000e-01 1
1 6 6 1.700188e+03 0.000000e+00 1.000000e+00 3.500000e-06 1.248000e-01 1
2 6 6 1.735232e+03 0.000000e+00 1.000000e+00 3.500000e-06 1.248000e-01 1
3 6 6 1.760070e+03 0.000000e+00 1.000000e+00 3.500000e-06 1.248000e-01 1
4 6 6 1.728189e+03 0.000000e+00 1.000000e+00 3.500000e-06 1.248000e-01 1
5 6 6 1.696449e+03 0.000000e+00 1.000000e+00 3.500000e-06 1.248000e-01 1
6 6 6 1.686077e+03 0.000000e+00 1.000000e+00 3.500000e-06 1.248000e-01 1
0 7 6 1.711335e+03 0.000000e+00 1.000000e+00 3.500000e-06 1.248000e-01 1
1 7 6 1.697293e+03 0.000000e+00 1.000000e+00 3.500000e-06 1.248000e-01 1
2 7 6 1.728073e+03 0.000000e+00 1.000000e+00 3.500000e-06 1.248000e-01 1
3 7 6 1.748285e+03 0.000000e+00 1.000000e+00 3.500000e-06 1.248000e-01 1
4 7 6 1.725299e+03 0.000000e+00 1.000000e+00 3.500000e-06 1.248000e-01 1
5 7 6 1.727445e+03 0.000000e+00 1.000000e+00 3.500000e-06 1.248000e-01 1
6 7 6 1.702159e+03 0.000000e+00 1.000000e+00 3.500000e-06 1.248000e-01 1
0 0 7 1.705010e+03 0.000000e+00 1.000000e+00 3.500000e-06 1.248000e-01 1
1 0 7 1.699180e+03 0.000000e+00 1.000000e+00 3.500000e-06 1.248000e-01 1
2 0 7 1.721886e+03 0.000000e+00 1.000000e+00 3.500000e-06 1.248000e-01 1
3 0 7 1.733466e+03 0.000000e+00 1.000000e+00 3.500000e-06 1.248000e-01 1
4 0 7 1.753320e+03 0.000000e+00 1.000000e+00 3.500000e-06 1.248000e-01 1
5 0 7 1.699319e+03 0.000000e+00 1.000000e+00 3.500000e-06 1.248000e-01 1
6 0 7 1.709467e+03 0.000000e+00 1.000000e+00 3.500000e-06 1.248000e-01 1
0 1 7 1.710702e+03 0.000000e+00 1.000000e+00 3.500000e-06 1.248000e-01 1
1 1 7 1.702569e+03 0.000000e+00 1.000000e+00 3.500000e-06 1.248000e-01 1
2 1 7 1.707964e+03 0.000000e+00 1.000000e+00 3.500000e-06 1.248000e-01 1
3 1 7 1.719058e+03 0.000000e+00 1.000000e+00 3.500000e-06 1.248000e-01 1
4 1 7 1.724574e+03 0.000000e+00 1.000000e+00 3.500000e-06 1.248000e-01 1
5 1 7 1.719943e+03 0.000000e+00 1.000000e+00 3.500000e-06 1.248000e-01 1
6 1 7 1.721327e+03 0.000000e+00 1.000000e+00 3.500000e-06 1.248000e-01 1
0 2 7 1.717726e+03 0.000000e+00 1.000000e+00 3.500000e-06 1.248000e-01 1
1 2 7 1.698549e+03 0.000000e+00 1.000000e+00 3.500000e-06 1.248000e-01 1
2 2 7 1.711224e+03 0.000000e+00 1.000000e+00 3.500000e-06 1.248000e-01 1